----- GAMESS execution script 'rungms' -----
This job is running on host chemcompute-node-0.novalocal
under operating system Linux at Fri Nov 12 20:35:17 UTC 2021
SLURM has assigned the following compute nodes to this run:
chemcompute-node-0
Available scratch disk space (Kbyte units) at beginning of the job is
Filesystem     1K-blocks     Used Available Use% Mounted on
/dev/sda1       62903276 16667836  46235440  27% /
GAMESS temporary binary files will be written to /scratch/305535
GAMESS supplementary output files will be written to /data/slurm/341394
Copying input file 341394.inp to your run's scratch directory...
The generated host list is
chemcompute-node-0.novalocal

 Distributed Data Interface kickoff program.
 Initiating 1 compute processes on 1 nodes to run the following command:
 /data/gamess-2019R1-ddi/gamess.00.x 341394 

          ******************************************************
          *         GAMESS VERSION = 30 JUN 2019 (R1)          *
          *             FROM IOWA STATE UNIVERSITY             *
          * M.W.SCHMIDT, K.K.BALDRIDGE, J.A.BOATZ, S.T.ELBERT, *
          *   M.S.GORDON, J.H.JENSEN, S.KOSEKI, N.MATSUNAGA,   *
          *          K.A.NGUYEN, S.J.SU, T.L.WINDUS,           *
          *       TOGETHER WITH M.DUPUIS, J.A.MONTGOMERY       *
          *         J.COMPUT.CHEM.  14, 1347-1363(1993)        *
          **************** 64 BIT LINUX VERSION ****************

  SINCE 1993, STUDENTS AND POSTDOCS WORKING AT IOWA STATE UNIVERSITY
  AND ALSO IN THEIR VARIOUS JOBS AFTER LEAVING ISU HAVE MADE IMPORTANT
  CONTRIBUTIONS TO THE CODE:
     IVANA ADAMOVIC, CHRISTINE AIKENS, YURI ALEXEEV, POOJA ARORA,
     ANDREY ASADCHEV, ROB BELL, PRADIPTA BANDYOPADHYAY, JONATHAN BENTZ,
     COLLEEN BERTONI, BRETT BODE, KURT BRORSEN, CALEB CARLIN, GALINA CHABAN,
     WEI CHEN, CHEOL HO CHOI, PAUL DAY, ALBERT DEFUSCO, NUWAN DESILVA,
     TIM DUDLEY, DMITRI FEDOROV, ALEX FINDLATER, GRAHAM FLETCHER, 
     MARK FREITAG, KURT GLAESEMANN, ANASTASIA GUNINA,
     DAN KEMP, GRANT MERRILL, NORIYUKI MINEZAWA, JONATHAN MULLIN,
     TAKESHI NAGATA, SEAN NEDD, HEATHER NETZLOFF, BOSILJKA NJEGIC, RYAN OLSON,
     MIKE PAK, BUU PHAM,
     SPENCER PRUITT, LUKE ROSKOP, JIM SHOEMAKER, LYUDMILA SLIPCHENKO,
     TONY SMITH, SAROM SOK LEANG, JIE SONG, TETSUYA TAKETSUGU, SIMON WEBB,
     PENG XU, SOOHAENG YOO, FEDERICO ZAHARIEV

  ADDITIONAL CODE HAS BEEN PROVIDED BY COLLABORATORS IN OTHER GROUPS:
     IOWA STATE UNIVERSITY:
          JOE IVANIC, AARON WEST, LAIMUTIS BYTAUTAS, KLAUS RUEDENBERG
     UNIVERSITY OF TOKYO: KIMIHIKO HIRAO, TAKAHITO NAKAJIMA,
          TAKAO TSUNEDA, MUNEAKI KAMIYA, SUSUMU YANAGISAWA,
          KIYOSHI YAGI, MAHITO CHIBA, SEIKEN TOKURA, NAOAKI KAWAKAMI
     UNIVERSITY OF AARHUS: FRANK JENSEN
     UNIVERSITY OF IOWA: VISVALDAS KAIRYS, HUI LI
     NATIONAL INST. OF STANDARDS AND TECHNOLOGY: WALT STEVENS, DAVID GARMER
     UNIVERSITY OF PISA: BENEDETTA MENNUCCI, JACOPO TOMASI
     UNIVERSITY OF MEMPHIS: HENRY KURTZ, PRAKASHAN KORAMBATH
     UNIVERSITY OF ALBERTA: TOBY ZENG, MARIUSZ KLOBUKOWSKI
     UNIVERSITY OF NEW ENGLAND: MARK SPACKMAN
     MIE UNIVERSITY: HIROAKI UMEDA
     NAT. INST. OF ADVANCED INDUSTRIAL SCIENCE AND TECHNOLOGY: KAZUO KITAURA
     MICHIGAN STATE UNIVERSITY:
          KAROL KOWALSKI, MARTA WLOCH, JEFFREY GOUR, JESSE LUTZ,
          WEI LI, JUN SHEN, J. EMILIANO DEUSTUA, PIOTR PIECUCH
     UNIVERSITY OF MINNESOTA:
          YINAN SHU
     UNIVERSITY OF SILESIA: MONIKA MUSIAL, STANISLAW KUCHARSKI
     FACULTES UNIVERSITAIRES NOTRE-DAME DE LA PAIX:
          OLIVIER QUINET, BENOIT CHAMPAGNE
     UNIVERSITY OF CALIFORNIA - SANTA BARBARA: BERNARD KIRTMAN
     INSTITUTE FOR MOLECULAR SCIENCE:
          KAZUYA ISHIMURA, MICHIO KATOUDA, AND SHIGERU NAGASE
     UNIVERSITY OF NOTRE DAME: ANNA POMOGAEVA, DAN CHIPMAN
     KYUSHU UNIVERSITY:
          HARUYUKI NAKANO,
          FENG LONG GU, JACEK KORCHOWIEC, MARCIN MAKOWSKI, AND YURIKO AOKI,
          HIROTOSHI MORI AND EISAKU MIYOSHI
     PENNSYLVANIA STATE UNIVERSITY:
          TZVETELIN IORDANOV, CHET SWALINA, JONATHAN SKONE,
          SHARON HAMMES-SCHIFFER
     WASEDA UNIVERSITY:
          MASATO KOBAYASHI, TOMOKO AKAMA, TSUGUKI TOUMA,
          TAKESHI YOSHIKAWA, YASUHIRO IKABATA, JUNJI SEINO,
          YUYA NAKAJIMA, HIROMI NAKAI
     NANJING UNIVERSITY: SHUHUA LI
     UNIVERSITY OF NEBRASKA:
          PEIFENG SU, DEJUN SI, NANDUN THELLAMUREGE, YALI WANG, HUI LI
     UNIVERSITY OF ZURICH: ROBERTO PEVERATI, KIM BALDRIDGE
     N. COPERNICUS UNIVERSITY AND JACKSON STATE UNIVERSITY:
          MARIA BARYSZ
     UNIVERSITY OF COPENHAGEN: Jimmy Kromann, CASPER STEINMANN
     TOKYO INSTITUTE OF TECHNOLOGY: HIROYA NAKATA
     NAGOYA UNIVERSITY: YOSHIO NISHIMOTO, STEPHAN IRLE
     MOSCOW STATE UNIVERSITY: VLADIMIR MIRONOV
     A.N.NESMEYANOV INSTITUTE OF ORGANOELEMENT COMPOUNDS OF RUSSIAN ACADEMY OF SCIENCES:
          IGOR S. GERASIMOV

 EXECUTION OF GAMESS BEGUN Fri Nov 12 20:35:18 2021

            ECHO OF THE FIRST FEW INPUT CARDS -
 INPUT CARD>!File created by the GAMESS Input Deck Generator Plugin for Avogadro            
 INPUT CARD> $BASIS GBASIS=STO NGAUSS=3 $END                                                
 INPUT CARD> $CONTRL SCFTYP=RHF RUNTYP=SADPOINT $END                                        
 INPUT CARD> $STATPT hssend=.t. OPTTOL=0.0005 NSTEP=50 $END                                 
 INPUT CARD> $STATPT HESS=calc ihrep=5 $END                                                 
 INPUT CARD> $FORCE nvib=2 $END                                                             
 INPUT CARD> $ZMAT DLC=.t. auto=.t. nonvdw(1)=1,6,3,4,4,5,5,6,1,2,2,3 $END                  
 INPUT CARD>!$ZMAT IFZMAT(1)=1,1,6,1,3,4 fvalue(1)=2.00,2.00 $END                           
 INPUT CARD>                                                                                
 INPUT CARD> $DATA                                                                          
 INPUT CARD>Title                                                                           
 INPUT CARD>C1                                                                              
 INPUT CARD>C     6.0     2.05837893    -1.15109861    -1.89264679                          
 INPUT CARD>C     6.0     0.83717746    -1.24036920    -1.21477592                          
 INPUT CARD>C     6.0     0.53868157    -0.32076535    -0.20265362                          
 INPUT CARD>C     6.0     1.94799733    -0.56214136     1.19576216                          
 INPUT CARD>C     6.0     2.78953099    -1.56366682     0.69643486                          
 INPUT CARD>C     6.0     3.47908688    -1.27760661    -0.49065369                          
 INPUT CARD>C     6.0     4.04604912     0.11535010    -0.58420748                          
 INPUT CARD>C     6.0     3.61566377     1.09441543     0.18560942                          
 INPUT CARD>C     6.0     2.51017356     0.86619103     1.19064975                          
 INPUT CARD>O     8.0     2.09167719     1.74306083     1.93478131                          
 INPUT CARD>H     1.0     2.31033230    -1.94741714    -2.58528900                          
 INPUT CARD>H     1.0     2.36641598    -0.17521589    -2.24751258                          
 INPUT CARD>H     1.0     0.38442221    -2.22217059    -1.13840258                          
 INPUT CARD>H     1.0     0.74374014     0.72450018    -0.40127397                          
 INPUT CARD>H     1.0    -0.37351573    -0.46648908     0.36594164                          
 INPUT CARD>H     1.0     1.35939586    -0.78711718     2.08047080                          
 INPUT CARD>H     1.0     2.58864498    -2.59687138     0.95212239                          
 INPUT CARD>H     1.0     4.11633110    -2.05125332    -0.90788913                          
 INPUT CARD>H     1.0     4.83024549     0.27887353    -1.31536126                          
 INPUT CARD>H     1.0     4.04013157     2.08893633     0.14498273                          
 INPUT CARD> $END                                                                           
    1000000 WORDS OF MEMORY AVAILABLE

     BASIS OPTIONS
     -------------
     GBASIS=STO          IGAUSS=       3      POLAR=NONE    
     NDFUNC=       0     NFFUNC=       0     DIFFSP=       F
     NPFUNC=       0      DIFFS=       F     BASNAM=        


     RUN TITLE
     ---------
 Title                                                                           

 THE POINT GROUP OF THE MOLECULE IS C1      
 THE ORDER OF THE PRINCIPAL AXIS IS     0

 ATOM      ATOMIC                      COORDINATES (BOHR)
           CHARGE         X                   Y                   Z
 C           6.0     3.8897721566       -2.1752609577       -3.5765838246
 C           6.0     1.5820360025       -2.3439579116       -2.2955936253
 C           6.0     1.0179605619       -0.6061586179       -0.3829598122
 C           6.0     3.6811811785       -1.0622931368        2.2596628289
 C           6.0     5.2714492054       -2.9549018259        1.3160710537
 C           6.0     6.5745208907       -2.4143264130       -0.9272010290
 C           6.0     7.6459241697        0.2179800817       -1.1039920572
 C           6.0     6.8326137890        2.0681452794        0.3507509445
 C           6.0     4.7435402100        1.6368636997        2.2500017748
 O           8.0     3.9526967439        3.2939073486        3.6562065221
 H           1.0     4.3658949876       -3.6800847784       -4.8854878091
 H           1.0     4.4718777752       -0.3311100208       -4.2471829302
 H           1.0     0.7264526405       -4.1992935131       -2.1512689399
 H           1.0     1.4054650707        1.3691068183       -0.7582978493
 H           1.0    -0.7058423818       -0.8815365375        0.6915294271
 H           1.0     2.5688856842       -1.4874357904        3.9315197375
 H           1.0     4.8918296917       -4.9073753336        1.7992504239
 H           1.0     7.7787378537       -3.8763067062       -1.7156616829
 H           1.0     9.1278404295        0.5269945569       -2.4856723563
 H           1.0     7.6347416216        3.9475172695        0.2739776327

          INTERNUCLEAR DISTANCES (ANGS.)
          ------------------------------

                1 C          2 C          3 C          4 C          5 C     

   1 C       0.0000000    1.3995754 *  2.4197129 *  3.1460014    2.7217898 *
   2 C       1.3995754 *  0.0000000    1.3997009 *  2.7394539 *  2.7511693 *
   3 C       2.4197129 *  1.3997009 *  0.0000000    2.0000000 *  2.7238736 *
   4 C       3.1460014    2.7394539 *  2.0000000 *  0.0000000    1.4002000 *
   5 C       2.7217898 *  2.7511693 *  2.7238736 *  1.4002000 *  0.0000000  
   6 C       2.0000000 *  2.7396031 *  3.1055551    2.3874933 *  1.4023184 *
   7 C       2.6956889 *  3.5401199    3.5549131    2.8335681 *  2.4572302 *
   8 C       3.4331645    3.8900237    3.4090034    2.5584566 *  2.8299893 *
   9 C       3.7121818    3.6086818    2.6901562 *  1.5349924 *  2.4952952 *
  10 O       4.7985908    4.5160088    3.3525814    2.4250258 *  3.5992985  
  11 H       1.0850608 *  2.1326997 *  3.3855123    4.0430958    3.3386535  
  12 H       1.0831268 *  2.1306494 *  2.7464970 *  3.4901184    3.2823237  
  13 H       2.1256083 *  1.0838608 *  2.1247974 *  3.2632483    3.0959334  
  14 H       2.7331921 *  2.1286680 *  1.0835493 *  2.3782780 *  3.2597443  
  15 H       3.3888086    2.1361967 *  1.0847303 *  2.4672200 *  3.3642071  
  16 H       4.0505213    3.3670165    2.4705694 *  1.0861746 *  2.1363219 *
  17 H       3.2348343    3.0989006    3.2736091    2.1470715 *  1.0831634 *
  18 H       2.4525891 *  3.3918374    4.0362757    3.3681560    2.1382223 *
  19 H       3.1719589    4.2735007    4.4738357    3.9141284    3.4068746  
  20 H       4.3101165    4.8158212    4.2646999    3.5368596    3.8999501  

                6 C          7 C          8 C          9 C         10 O     

   1 C       2.0000000 *  2.6956889 *  3.4331645    3.7121818    4.7985908  
   2 C       2.7396031 *  3.5401199    3.8900237    3.6086818    4.5160088  
   3 C       3.1055551    3.5549131    3.4090034    2.6901562 *  3.3525814  
   4 C       2.3874933 *  2.8335681 *  2.5584566 *  1.5349924 *  2.4250258 *
   5 C       1.4023184 *  2.4572302 *  2.8299893 *  2.4952952 *  3.5992985  
   6 C       0.0000000    1.5068268 *  2.4703185 *  2.8916159 *  4.1148599  
   7 C       1.5068268 *  0.0000000    1.3177323 *  2.4643040 *  3.5797090  
   8 C       2.4703185 *  1.3177323 *  0.0000000    1.5113904 *  2.4089164 *
   9 C       2.8916159 *  2.4643040 *  1.5113904 *  0.0000000    1.2238348 *
  10 O       4.1148599    3.5797090    2.4089164 *  1.2238348 *  0.0000000  
  11 H       2.4904077 *  3.3573872    4.3167712    4.7131774    5.8393898  
  12 H       2.3536897 *  2.3816339 *  3.0154048    3.5952962    4.6094305  
  13 H       3.2998074    4.3793432    4.8159810    4.4137604    5.2992678  
  14 H       3.3909500    3.3630006    2.9545245 *  2.3821386 *  2.8829766 *
  15 H       4.0291704    4.5578365    4.2874813    3.2820487    3.6634062  
  16 H       3.3681376    3.8901238    3.4959133    2.2021578 *  2.6380413 *
  17 H       2.1482433 *  3.4410001    3.9074171    3.4721541    4.4774554  
  18 H       1.0856771 *  2.1917755 *  3.3677350    3.9363802    5.1552709  
  19 H       2.2200006 *  1.0845689 *  2.0960034 *  3.4652225    4.4952227  
  20 H       3.4716590    2.1039952 *  1.0820791 *  2.2202020 *  2.6682360 *

               11 H         12 H         13 H         14 H         15 H     

   1 C       1.0850608 *  1.0831268 *  2.1256083 *  2.7331921 *  3.3888086  
   2 C       2.1326997 *  2.1306494 *  1.0838608 *  2.1286680 *  2.1361967 *
   3 C       3.3855123    2.7464970 *  2.1247974 *  1.0835493 *  1.0847303 *
   4 C       4.0430958    3.4901184    3.2632483    2.3782780 *  2.4672200 *
   5 C       3.3386535    3.2823237    3.0959334    3.2597443    3.3642071  
   6 C       2.4904077 *  2.3536897 *  3.2998074    3.3909500    4.0291704  
   7 C       3.3573872    2.3816339 *  4.3793432    3.3630006    4.5578365  
   8 C       4.3167712    3.0154048    4.8159810    2.9545245 *  4.2874813  
   9 C       4.7131774    3.5952962    4.4137604    2.3821386 *  3.2820487  
  10 O       5.8393898    4.6094305    5.2992678    2.8829766 *  3.6634062  
  11 H       0.0000000    1.8049752 *  2.4244792 *  3.7898911    4.2551087  
  12 H       1.8049752 *  0.0000000    3.0575232    2.6174726 *  3.7976583  
  13 H       2.4244792 *  3.0575232    0.0000000    3.0586495    2.4330925 *
  14 H       3.7898911    2.6174726 *  3.0586495    0.0000000    1.8042549 *
  15 H       4.2551087    3.7976583    2.4330925 *  1.8042549 *  0.0000000  
  16 H       4.9010091    4.4855270    3.6566512    2.9703663 *  2.4587385 *
  17 H       3.6072882    4.0188885    3.0609301    4.0332201    3.6954746  
  18 H       2.4669990 *  2.8941856 *  3.7429257    4.3972533    4.9287774  
  19 H       3.5943079    2.6731179 *  5.1041043    4.2111358    5.5191916  
  20 H       5.1709514    3.6948265    5.7962860    3.6091937    5.1048315  

               16 H         17 H         18 H         19 H         20 H     

   1 C       4.0505213    3.2348343    2.4525891 *  3.1719589    4.3101165  
   2 C       3.3670165    3.0989006    3.3918374    4.2735007    4.8158212  
   3 C       2.4705694 *  3.2736091    4.0362757    4.4738357    4.2646999  
   4 C       1.0861746 *  2.1470715 *  3.3681560    3.9141284    3.5368596  
   5 C       2.1363219 *  1.0831634 *  2.1382223 *  3.4068746    3.8999501  
   6 C       3.3681376    2.1482433 *  1.0856771 *  2.2200006 *  3.4716590  
   7 C       3.8901238    3.4410001    2.1917755 *  1.0845689 *  2.1039952 *
   8 C       3.4959133    3.9074171    3.3677350    2.0960034 *  1.0820791 *
   9 C       2.2021578 *  3.4721541    3.9363802    3.4652225    2.2202020 *
  10 O       2.6380413 *  4.4774554    5.1552709    4.4952227    2.6682360 *
  11 H       4.9010091    3.6072882    2.4669990 *  3.5943079    5.1709514  
  12 H       4.4855270    4.0188885    2.8941856 *  2.6731179 *  3.6948265  
  13 H       3.6566512    3.0609301    3.7429257    5.1041043    5.7962860  
  14 H       2.9703663 *  4.0332201    4.3972533    4.2111358    3.6091937  
  15 H       2.4587385 *  3.6954746    4.9287774    5.5191916    5.1048315  
  16 H       0.0000000    2.4615917 *  4.2578195    4.9713991    4.3822531  
  17 H       2.4615917 *  0.0000000    2.4680289 *  4.2937354    4.9714265  
  18 H       4.2578195    2.4680289 *  0.0000000    2.4708700 *  4.2726474  
  19 H       4.9713991    4.2937354    2.4708700 *  0.0000000    2.4562597 *
  20 H       4.3822531    4.9714265    4.2726474    2.4562597 *  0.0000000  

  * ... LESS THAN  3.000


     ATOMIC BASIS SET
     ----------------
 THE CONTRACTED PRIMITIVE FUNCTIONS HAVE BEEN UNNORMALIZED
 THE CONTRACTED BASIS FUNCTIONS ARE NOW NORMALIZED TO UNITY

  SHELL TYPE  PRIMITIVE        EXPONENT          CONTRACTION COEFFICIENT(S)

 C         

      1   S       1            71.6168373    0.154328967295
      1   S       2            13.0450963    0.535328142282
      1   S       3             3.5305122    0.444634542185

      2   L       4             2.9412494   -0.099967229187    0.155916274999
      2   L       5             0.6834831    0.399512826089    0.607683718598
      2   L       6             0.2222899    0.700115468880    0.391957393099

 C         

      3   S       7            71.6168373    0.154328967295
      3   S       8            13.0450963    0.535328142282
      3   S       9             3.5305122    0.444634542185

      4   L      10             2.9412494   -0.099967229187    0.155916274999
      4   L      11             0.6834831    0.399512826089    0.607683718598
      4   L      12             0.2222899    0.700115468880    0.391957393099

 C         

      5   S      13            71.6168373    0.154328967295
      5   S      14            13.0450963    0.535328142282
      5   S      15             3.5305122    0.444634542185

      6   L      16             2.9412494   -0.099967229187    0.155916274999
      6   L      17             0.6834831    0.399512826089    0.607683718598
      6   L      18             0.2222899    0.700115468880    0.391957393099

 C         

      7   S      19            71.6168373    0.154328967295
      7   S      20            13.0450963    0.535328142282
      7   S      21             3.5305122    0.444634542185

      8   L      22             2.9412494   -0.099967229187    0.155916274999
      8   L      23             0.6834831    0.399512826089    0.607683718598
      8   L      24             0.2222899    0.700115468880    0.391957393099

 C         

      9   S      25            71.6168373    0.154328967295
      9   S      26            13.0450963    0.535328142282
      9   S      27             3.5305122    0.444634542185

     10   L      28             2.9412494   -0.099967229187    0.155916274999
     10   L      29             0.6834831    0.399512826089    0.607683718598
     10   L      30             0.2222899    0.700115468880    0.391957393099

 C         

     11   S      31            71.6168373    0.154328967295
     11   S      32            13.0450963    0.535328142282
     11   S      33             3.5305122    0.444634542185

     12   L      34             2.9412494   -0.099967229187    0.155916274999
     12   L      35             0.6834831    0.399512826089    0.607683718598
     12   L      36             0.2222899    0.700115468880    0.391957393099

 C         

     13   S      37            71.6168373    0.154328967295
     13   S      38            13.0450963    0.535328142282
     13   S      39             3.5305122    0.444634542185

     14   L      40             2.9412494   -0.099967229187    0.155916274999
     14   L      41             0.6834831    0.399512826089    0.607683718598
     14   L      42             0.2222899    0.700115468880    0.391957393099

 C         

     15   S      43            71.6168373    0.154328967295
     15   S      44            13.0450963    0.535328142282
     15   S      45             3.5305122    0.444634542185

     16   L      46             2.9412494   -0.099967229187    0.155916274999
     16   L      47             0.6834831    0.399512826089    0.607683718598
     16   L      48             0.2222899    0.700115468880    0.391957393099

 C         

     17   S      49            71.6168373    0.154328967295
     17   S      50            13.0450963    0.535328142282
     17   S      51             3.5305122    0.444634542185

     18   L      52             2.9412494   -0.099967229187    0.155916274999
     18   L      53             0.6834831    0.399512826089    0.607683718598
     18   L      54             0.2222899    0.700115468880    0.391957393099

 O         

     19   S      55           130.7093214    0.154328967295
     19   S      56            23.8088661    0.535328142282
     19   S      57             6.4436083    0.444634542185

     20   L      58             5.0331513   -0.099967229187    0.155916274999
     20   L      59             1.1695961    0.399512826089    0.607683718598
     20   L      60             0.3803890    0.700115468880    0.391957393099

 H         

     21   S      61             3.4252509    0.154328967295
     21   S      62             0.6239137    0.535328142282
     21   S      63             0.1688554    0.444634542185

 H         

     22   S      64             3.4252509    0.154328967295
     22   S      65             0.6239137    0.535328142282
     22   S      66             0.1688554    0.444634542185

 H         

     23   S      67             3.4252509    0.154328967295
     23   S      68             0.6239137    0.535328142282
     23   S      69             0.1688554    0.444634542185

 H         

     24   S      70             3.4252509    0.154328967295
     24   S      71             0.6239137    0.535328142282
     24   S      72             0.1688554    0.444634542185

 H         

     25   S      73             3.4252509    0.154328967295
     25   S      74             0.6239137    0.535328142282
     25   S      75             0.1688554    0.444634542185

 H         

     26   S      76             3.4252509    0.154328967295
     26   S      77             0.6239137    0.535328142282
     26   S      78             0.1688554    0.444634542185

 H         

     27   S      79             3.4252509    0.154328967295
     27   S      80             0.6239137    0.535328142282
     27   S      81             0.1688554    0.444634542185

 H         

     28   S      82             3.4252509    0.154328967295
     28   S      83             0.6239137    0.535328142282
     28   S      84             0.1688554    0.444634542185

 H         

     29   S      85             3.4252509    0.154328967295
     29   S      86             0.6239137    0.535328142282
     29   S      87             0.1688554    0.444634542185

 H         

     30   S      88             3.4252509    0.154328967295
     30   S      89             0.6239137    0.535328142282
     30   S      90             0.1688554    0.444634542185

 TOTAL NUMBER OF BASIS SET SHELLS             =   30
 NUMBER OF CARTESIAN GAUSSIAN BASIS FUNCTIONS =   60
 NUMBER OF ELECTRONS                          =   72
 CHARGE OF MOLECULE                           =    0
 SPIN MULTIPLICITY                            =    1
 NUMBER OF OCCUPIED ORBITALS (ALPHA)          =   36
 NUMBER OF OCCUPIED ORBITALS (BETA )          =   36
 TOTAL NUMBER OF ATOMS                        =   20
 THE NUCLEAR REPULSION ENERGY IS      509.6730560153

     $CONTRL OPTIONS
     ---------------
 SCFTYP=RHF          RUNTYP=SADPOINT     EXETYP=RUN     
 MPLEVL=       0     CITYP =NONE         CCTYP =NONE         VBTYP =NONE    
 DFTTYP=NONE         TDDFT =NONE    
 MULT  =       1     ICHARG=       0     NZVAR =       0     COORD =UNIQUE  
 PP    =NONE         RELWFN=NONE         LOCAL =NONE         NUMGRD=       F
 ISPHER=      -1     NOSYM =       0     MAXIT =      30     UNITS =ANGS    
 PLTORB=       F     MOLPLT=       F     AIMPAC=       F     FRIEND=        
 NPRINT=       7     IREST =       0     GEOM  =INPUT   
 NORMF =       0     NORMP =       0     ITOL  =      20     ICUT  =       9
 INTTYP=BEST         GRDTYP=BEST         QMTTOL= 1.0E-06

     $SYSTEM OPTIONS
     ---------------
  REPLICATED MEMORY=     1000000 WORDS (ON EVERY NODE).
 DISTRIBUTED MEMDDI=           0 MILLION WORDS IN AGGREGATE,
 MEMDDI DISTRIBUTED OVER   1 PROCESSORS IS           0 WORDS/PROCESSOR.
 TOTAL MEMORY REQUESTED ON EACH PROCESSOR=     1000000 WORDS.
 TIMLIM=      525600.00 MINUTES, OR     365.0 DAYS.
 PARALL= F  BALTYP=  DLB     KDIAG=    0  COREFL= F
 MXSEQ2=     300 MXSEQ3=     150  mem10=         0

          ----------------
          PROPERTIES INPUT
          ----------------

     MOMENTS            FIELD           POTENTIAL          DENSITY
 IEMOM =       1   IEFLD =       0   IEPOT =       0   IEDEN =       0
 WHERE =COMASS     WHERE =NUCLEI     WHERE =NUCLEI     WHERE =NUCLEI  
 OUTPUT=BOTH       OUTPUT=BOTH       OUTPUT=BOTH       OUTPUT=BOTH    
 IEMINT=       0   IEFINT=       0                     IEDINT=       0
                                                       MORB  =       0
          EXTRAPOLATION IN EFFECT
          SOSCF IN EFFECT
 ORBITAL PRINTING OPTION: NPREO=     1    60     2     1

     -------------------------------
     INTEGRAL TRANSFORMATION OPTIONS
     -------------------------------
     NWORD  =            0
     CUTOFF = 1.0E-09     MPTRAN =       0
     DIRTRF =       F     AOINTS =DUP     

          ----------------------
          INTEGRAL INPUT OPTIONS
          ----------------------
 NOPK  =       1 NORDER=       0 SCHWRZ=       T

     ------------------------------------------
     THE POINT GROUP IS C1 , NAXIS= 0, ORDER= 1
     ------------------------------------------

     DIMENSIONS OF THE SYMMETRY SUBSPACES ARE
 A   =   60

 ..... DONE SETTING UP THE RUN .....
 STEP CPU TIME =     0.03 TOTAL CPU TIME =          0.0 (      0.0 MIN)
 TOTAL WALL CLOCK TIME=          0.1 SECONDS, CPU UTILIZATION IS    60.00%


          -----------------------------
          STATIONARY POINT LOCATION RUN
          -----------------------------

 OBTAINING INITIAL HESSIAN, HESS=CALC    

     ---------------------------------
     HESSIAN MATRIX CONTROL PARAMETERS
     ---------------------------------
     METHOD=ANALYTIC   NVIB  =       2   VIBSIZ= 0.01000
     RDHESS=       F   PURIFY=       F   PRTIFC=       F
     VIBANL=       F   DECOMP=       F   PROJCT=       F
     SCLFAC= 1.00000   PRTSCN=       F   NPRT  =       0
     PULCOR=       F   NPUN  =       0   REDOVB=       T
     HSSTYP=GENERAL 
 Old integral subroutine is used

     ------------------------------
     CPHF RESPONSE SOLUTION OPTIONS
     ------------------------------
     POLAR  =       F     NWORD  =       0
     CPHF   =AO      

          ********************
          1 ELECTRON INTEGRALS
          ********************
 ...... END OF ONE-ELECTRON INTEGRALS ......
 STEP CPU TIME =     0.02 TOTAL CPU TIME =          0.0 (      0.0 MIN)
 TOTAL WALL CLOCK TIME=          0.1 SECONDS, CPU UTILIZATION IS    71.43%

          -------------
          GUESS OPTIONS
          -------------
          GUESS =HUCKEL            NORB  =       0          NORDER=       0
          MIX   =       F          PRTMO =       F          PUNMO =       F
          TOLZ  = 1.0E-08          TOLE  = 1.0E-05
          SYMDEN=       F          PURIFY=       F

 INITIAL GUESS ORBITALS GENERATED BY HUCKEL   ROUTINE.
 HUCKEL GUESS REQUIRES     53820 WORDS.

 SYMMETRIES FOR INITIAL GUESS ORBITALS FOLLOW.   BOTH SET(S).
    36 ORBITALS ARE OCCUPIED (   10 CORE ORBITALS).
    11=A       12=A       13=A       14=A       15=A       16=A       17=A   
    18=A       19=A       20=A       21=A       22=A       23=A       24=A   
    25=A       26=A       27=A       28=A       29=A       30=A       31=A   
    32=A       33=A       34=A       35=A       36=A       37=A       38=A   
    39=A       40=A       41=A       42=A       43=A       44=A       45=A   
    46=A   
 ...... END OF INITIAL ORBITAL SELECTION ......
 STEP CPU TIME =     0.02 TOTAL CPU TIME =          0.1 (      0.0 MIN)
 TOTAL WALL CLOCK TIME=          0.1 SECONDS, CPU UTILIZATION IS    77.78%

                    ----------------------
                    AO INTEGRAL TECHNOLOGY
                    ----------------------
     S,P,L SHELL ROTATED AXIS INTEGRALS, REPROGRAMMED BY
        KAZUYA ISHIMURA (IMS) AND JOSE SIERRA (SYNSTAR).
     S,P,D,L SHELL ROTATED AXIS INTEGRALS PROGRAMMED BY
        KAZUYA ISHIMURA (INSTITUTE FOR MOLECULAR SCIENCE).
     S,P,D,F,G SHELL TO TOTAL QUARTET ANGULAR MOMENTUM SUM 5,
        ERIC PROGRAM BY GRAHAM FLETCHER (ELORET AND NASA ADVANCED
        SUPERCOMPUTING DIVISION, AMES RESEARCH CENTER).
     S,P,D,F,G,L SHELL GENERAL RYS QUADRATURE PROGRAMMED BY
        MICHEL DUPUIS (PACIFIC NORTHWEST NATIONAL LABORATORY).

          --------------------
          2 ELECTRON INTEGRALS
          --------------------

 THE -PK- OPTION IS OFF, THE INTEGRALS ARE NOT IN SUPERMATRIX FORM.
 STORING   15000 INTEGRALS/RECORD ON DISK, USING 12 BYTES/INTEGRAL.
 TWO ELECTRON INTEGRAL EVALUATION REQUIRES   89821 WORDS OF MEMORY.
 SCHWARZ INEQUALITY OVERHEAD:      1797 INTEGRALS, T=        0.00
 II,JST,KST,LST =  1  1  1  1 NREC =         1 INTLOC =    1
 II,JST,KST,LST =  2  1  1  1 NREC =         1 INTLOC =    2
 II,JST,KST,LST =  3  1  1  1 NREC =         1 INTLOC =   34
 II,JST,KST,LST =  4  1  1  1 NREC =         1 INTLOC =  144
 II,JST,KST,LST =  5  1  1  1 NREC =         1 INTLOC = 1366
 II,JST,KST,LST =  6  1  1  1 NREC =         1 INTLOC = 1965
 II,JST,KST,LST =  7  1  1  1 NREC =         1 INTLOC = 6867
 II,JST,KST,LST =  8  1  1  1 NREC =         1 INTLOC = 8485
 II,JST,KST,LST =  9  1  1  1 NREC =         2 INTLOC = 5883
 II,JST,KST,LST = 10  1  1  1 NREC =         2 INTLOC = 9670
 II,JST,KST,LST = 11  1  1  1 NREC =         4 INTLOC = 5051
 II,JST,KST,LST = 12  1  1  1 NREC =         4 INTLOC =12152
 II,JST,KST,LST = 13  1  1  1 NREC =         7 INTLOC =12234
 II,JST,KST,LST = 14  1  1  1 NREC =         8 INTLOC = 8684
 II,JST,KST,LST = 15  1  1  1 NREC =        13 INTLOC = 6251
 II,JST,KST,LST = 16  1  1  1 NREC =        14 INTLOC = 8914
 II,JST,KST,LST = 17  1  1  1 NREC =        21 INTLOC =13342
 II,JST,KST,LST = 18  1  1  1 NREC =        23 INTLOC = 9449
 II,JST,KST,LST = 19  1  1  1 NREC =        34 INTLOC = 2525
 II,JST,KST,LST = 20  1  1  1 NREC =        35 INTLOC =13900
 II,JST,KST,LST = 21  1  1  1 NREC =        48 INTLOC = 2616
 II,JST,KST,LST = 22  1  1  1 NREC =        51 INTLOC =13396
 II,JST,KST,LST = 23  1  1  1 NREC =        56 INTLOC = 2743
 II,JST,KST,LST = 24  1  1  1 NREC =        60 INTLOC = 7067
 II,JST,KST,LST = 25  1  1  1 NREC =        65 INTLOC = 6042
 II,JST,KST,LST = 26  1  1  1 NREC =        70 INTLOC = 6873
 II,JST,KST,LST = 27  1  1  1 NREC =        75 INTLOC =13744
 II,JST,KST,LST = 28  1  1  1 NREC =        81 INTLOC = 9101
 II,JST,KST,LST = 29  1  1  1 NREC =        87 INTLOC = 7489
 II,JST,KST,LST = 30  1  1  1 NREC =        93 INTLOC =10543
 SCHWARZ INEQUALITY TEST SKIPPED       24280 INTEGRAL BLOCKS.
 TOTAL NUMBER OF NONZERO TWO-ELECTRON INTEGRALS =             1488591
        100 INTEGRAL RECORDS WERE STORED ON DISK FILE  8.
  ...... END OF TWO-ELECTRON INTEGRALS .....
 STEP CPU TIME =     0.28 TOTAL CPU TIME =          0.3 (      0.0 MIN)
 TOTAL WALL CLOCK TIME=          0.4 SECONDS, CPU UTILIZATION IS    92.11%

          --------------------------
                 RHF SCF CALCULATION
          --------------------------

     NUCLEAR ENERGY =       509.6730560153
     MAXIT =   30     NPUNCH=    2
     EXTRAP=T  DAMP=F  SHIFT=F  RSTRCT=F  DIIS=F  DEM=F  SOSCF=T
     DENSITY MATRIX CONV=  1.00E-05
     SOSCF WILL OPTIMIZE     864 ORBITAL ROTATIONS, SOGTOL=   0.250
     MEMORY REQUIRED FOR RHF ITERS=     59496 WORDS.

 ITER EX DEM     TOTAL ENERGY        E CHANGE  DENSITY CHANGE     ORB. GRAD
   1  0  0     -415.5233191928  -415.5233191928   0.524937335   0.000000000
          ---------------START SECOND ORDER SCF---------------
   2  1  0     -416.0288475234    -0.5055283307   0.236813078   0.064720135
   3  2  0     -416.0582523800    -0.0294048565   0.120554341   0.049268471
   4  3  0     -416.0921771766    -0.0339247967   0.017601509   0.007298143
   5  4  0     -416.0930434433    -0.0008662667   0.004128416   0.002938836
   6  5  0     -416.0931515160    -0.0001080728   0.001931095   0.000763334
   7  6  0     -416.0931640537    -0.0000125376   0.000576903   0.000261644
   8  7  0     -416.0931659079    -0.0000018542   0.000203295   0.000073023
   9  8  0     -416.0931660854    -0.0000001775   0.000107658   0.000023571
  10  9  0     -416.0931661172    -0.0000000318   0.000047605   0.000011428
  11 10  0     -416.0931661223    -0.0000000051   0.000025246   0.000003473
  12 11  0     -416.0931661233    -0.0000000010   0.000008380   0.000001377
  13 12  0     -416.0931661234    -0.0000000001   0.000004593   0.000000512

          -----------------
          DENSITY CONVERGED
          -----------------
     TIME TO FORM FOCK OPERATORS=       0.4 SECONDS (       0.0 SEC/ITER)
     TIME TO SOLVE SCF EQUATIONS=       0.0 SECONDS (       0.0 SEC/ITER)

 FINAL RHF ENERGY IS     -416.0931661234 AFTER  13 ITERATIONS

          ------------
          EIGENVECTORS
          ------------

                      1          2          3          4          5
                  -20.2612   -11.1181   -11.0543   -11.0493   -11.0456
                     A          A          A          A          A   
    1  C  1  S   -0.000000   0.000023  -0.030496  -0.005702  -0.085147
    2  C  1  S    0.000003  -0.000004  -0.003830   0.000016  -0.002988
    3  C  1  X    0.000001   0.000006  -0.001710  -0.000131   0.000122
    4  C  1  Y   -0.000002   0.000013   0.000160   0.000013  -0.000110
    5  C  1  Z   -0.000001   0.000004  -0.001772  -0.000279  -0.000028
    6  C  2  S   -0.000000   0.000015  -0.000572   0.000062   0.003853
    7  C  2  S    0.000010  -0.000030   0.000351   0.000059  -0.006044
    8  C  2  X   -0.000007   0.000058   0.000229   0.000042   0.001350
    9  C  2  Y    0.000000   0.000001   0.000013   0.000037  -0.002885
   10  C  2  Z    0.000007  -0.000024  -0.000082   0.000022  -0.003338
   11  C  3  S   -0.000005  -0.000222  -0.000699   0.000652   0.958606
   12  C  3  S   -0.000000   0.000304  -0.000021   0.000046   0.035525
   13  C  3  X    0.000018  -0.000176  -0.000076  -0.000004  -0.000240
   14  C  3  Y    0.000017   0.000051   0.000006   0.000019  -0.000152
   15  C  3  Z    0.000039  -0.000198   0.000013   0.000019  -0.000951
   16  C  4  S   -0.000024  -0.001607  -0.004048  -0.005412  -0.240433
   17  C  4  S    0.000270  -0.005398  -0.000068  -0.000229  -0.011279
   18  C  4  X   -0.000212  -0.001415  -0.000059  -0.000125   0.001325
   19  C  4  Y    0.000245  -0.003772  -0.000064  -0.000051  -0.000070
   20  C  4  Z    0.000351  -0.000190   0.000170   0.000114   0.001556
   21  C  5  S    0.000004  -0.000277   0.003949  -0.001148  -0.002009
   22  C  5  S    0.000033   0.000070  -0.006881  -0.000015   0.001796
   23  C  5  X   -0.000060  -0.000019  -0.002357  -0.000111  -0.000724
   24  C  5  Y   -0.000037  -0.000013  -0.000863  -0.000086   0.000861
   25  C  5  Z    0.000011  -0.000017   0.003815   0.000030   0.000445
   26  C  6  S    0.000003  -0.000254   0.991336   0.024232  -0.003067
   27  C  6  S    0.000007  -0.000064   0.036233  -0.004858   0.000114
   28  C  6  X    0.000025   0.000009   0.000647  -0.001526  -0.000128
   29  C  6  Y   -0.000027  -0.000095   0.000170  -0.003859   0.000008
   30  C  6  Z   -0.000018  -0.000053   0.001613   0.000105  -0.000135
   31  C  7  S    0.000005  -0.000272  -0.023436   0.991729  -0.002397
   32  C  7  S    0.000054   0.000111  -0.006871   0.035857  -0.000058
   33  C  7  X    0.000036  -0.000057   0.001573  -0.000599  -0.000034
   34  C  7  Y    0.000066  -0.000063   0.003991   0.001269  -0.000020
   35  C  7  Z   -0.000012   0.000031  -0.000476   0.000913   0.000029
   36  C  8  S   -0.000025  -0.001005  -0.001146   0.019707   0.000524
   37  C  8  S    0.000270  -0.005689   0.000345  -0.007398   0.000039
   38  C  8  X   -0.000076   0.002992  -0.000000  -0.001501  -0.000047
   39  C  8  Y    0.000445   0.000434  -0.000185   0.003384   0.000000
   40  C  8  Z    0.000244  -0.002805  -0.000012   0.002675  -0.000026
   41  C  9  S    0.000548   0.992564   0.000267   0.000342  -0.000396
   42  C  9  S   -0.007195   0.032729  -0.000008   0.000149   0.001521
   43  C  9  X    0.002184  -0.000117  -0.000069  -0.000040  -0.000391
   44  C  9  Y   -0.004579   0.000395   0.000055   0.000123  -0.001008
   45  C  9  Z   -0.003873   0.000108   0.000113   0.000081   0.000045
   46  O 10  S    0.994267   0.000162   0.000005   0.000013  -0.000003
   47  O 10  S    0.025993  -0.005790  -0.000052  -0.000115  -0.000031
   48  O 10  X    0.001914  -0.000593  -0.000010  -0.000033  -0.000008
   49  O 10  Y   -0.004021   0.001224   0.000029   0.000032   0.000043
   50  O 10  Z   -0.003414   0.001063   0.000016   0.000045  -0.000028
   51  H 11  S   -0.000002   0.000002   0.000358  -0.000012   0.000496
   52  H 12  S   -0.000002   0.000006   0.000363  -0.000951   0.000563
   53  H 13  S   -0.000002   0.000006  -0.000001   0.000001   0.000038
   54  H 14  S    0.000080  -0.001059   0.000005  -0.000042  -0.006736
   55  H 15  S   -0.000006  -0.000035  -0.000017  -0.000014  -0.006696
   56  H 16  S   -0.000179  -0.000014  -0.000090  -0.000023   0.001821
   57  H 17  S   -0.000020  -0.000052   0.000080  -0.000080  -0.000014
   58  H 18  S   -0.000016  -0.000026  -0.006924  -0.000128   0.000018
   59  H 19  S   -0.000021  -0.000038   0.000241  -0.006826   0.000025
   60  H 20  S   -0.000192   0.000012  -0.000037   0.000011   0.000014

                      6          7          8          9         10
                  -11.0452   -11.0444   -11.0258   -11.0184   -11.0121
                     A          A          A          A          A   
    1  C  1  S    0.987890   0.016855  -0.000217   0.000974  -0.003463
    2  C  1  S    0.035878   0.000647   0.000047   0.000289  -0.007235
    3  C  1  X   -0.001491  -0.000048   0.000027  -0.000045   0.003978
    4  C  1  Y    0.000275  -0.000040   0.000034   0.000052   0.000317
    5  C  1  Z   -0.000714  -0.000094  -0.000033  -0.000067  -0.002367
    6  C  2  S    0.004585   0.000520   0.000105  -0.018460   0.991933
    7  C  2  S   -0.007346  -0.001675   0.000028  -0.001165   0.036727
    8  C  2  X   -0.003798   0.000194   0.000005  -0.000476   0.001890
    9  C  2  Y   -0.000524  -0.000685  -0.000004   0.000150  -0.000016
   10  C  2  Z    0.002015  -0.000662   0.000007  -0.000503   0.001707
   11  C  3  S    0.078509   0.243594  -0.000271   0.000891  -0.003418
   12  C  3  S    0.003069   0.006228   0.000087   0.000298  -0.007232
   13  C  3  X   -0.000128  -0.001913  -0.000018  -0.000048  -0.001102
   14  C  3  Y   -0.000039   0.000322   0.000078   0.000025   0.003086
   15  C  3  Z   -0.000016  -0.002033   0.000010  -0.000049   0.003283
   16  C  4  S   -0.037280   0.961824   0.001491  -0.004612   0.000545
   17  C  4  S   -0.001536   0.034100   0.000248  -0.007296   0.000019
   18  C  4  X    0.000086   0.001917   0.000006  -0.002698  -0.000056
   19  C  4  Y   -0.000018  -0.000698   0.000002   0.003315   0.000114
   20  C  4  Z    0.000167   0.001071   0.000066   0.001716   0.000100
   21  C  5  S   -0.001016   0.005026  -0.004280   0.991918   0.018699
   22  C  5  S    0.000150  -0.006689  -0.000268   0.036682   0.000198
   23  C  5  X   -0.000133   0.002600  -0.000070  -0.001504   0.000461
   24  C  5  Y    0.000123  -0.003124  -0.000211   0.000914   0.000009
   25  C  5  Z    0.000096  -0.001688   0.000020  -0.001727   0.000415
   26  C  6  S    0.031291   0.004833   0.000710  -0.003139   0.000405
   27  C  6  S   -0.001560   0.000170   0.000406  -0.007218   0.000020
   28  C  6  X    0.001828   0.000177   0.000129   0.002349   0.000119
   29  C  6  Y   -0.000135  -0.000174   0.000086   0.000943   0.000003
   30  C  6  Z    0.001769   0.000013  -0.000037  -0.003838  -0.000104
   31  C  7  S    0.004720   0.005149  -0.019188   0.001213  -0.000076
   32  C  7  S    0.000131   0.000116  -0.008919   0.000147   0.000008
   33  C  7  X    0.000001   0.000143   0.001532   0.000026  -0.000041
   34  C  7  Y    0.000052   0.000032  -0.003490  -0.000026   0.000020
   35  C  7  Z   -0.000061  -0.000096  -0.002760  -0.000178  -0.000010
   36  C  8  S    0.000344  -0.001221   0.991968   0.004375  -0.000031
   37  C  8  S    0.000019   0.000065   0.036541   0.000092  -0.000014
   38  C  8  X   -0.000015   0.000012   0.000562   0.000028  -0.000001
   39  C  8  Y    0.000001   0.000037  -0.001526   0.000181   0.000004
   40  C  8  Z   -0.000021   0.000029  -0.000987  -0.000078  -0.000000
   41  C  9  S   -0.000095   0.002579   0.001994   0.000339  -0.000013
   42  C  9  S    0.000237  -0.005468  -0.005878   0.000129  -0.000010
   43  C  9  X   -0.000064   0.001404  -0.003074  -0.000155  -0.000003
   44  C  9  Y   -0.000155   0.003814  -0.000601   0.000052   0.000009
   45  C  9  Z    0.000006  -0.000189   0.002780   0.000024  -0.000049
   46  O 10  S    0.000001  -0.000022  -0.000022   0.000009   0.000000
   47  O 10  S   -0.000010   0.000244   0.000249  -0.000084   0.000005
   48  O 10  X   -0.000002  -0.000064   0.000162   0.000014   0.000007
   49  O 10  Y    0.000011  -0.000220   0.000017   0.000036  -0.000004
   50  O 10  Z   -0.000003   0.000006  -0.000151   0.000034   0.000002
   51  H 11  S   -0.006893  -0.000160  -0.000010  -0.000031   0.000107
   52  H 12  S   -0.006911  -0.000131  -0.000105  -0.000057   0.000014
   53  H 13  S    0.000051   0.000009  -0.000004   0.000141  -0.007002
   54  H 14  S   -0.000603  -0.001567  -0.000210  -0.000044   0.000020
   55  H 15  S   -0.000658  -0.001565  -0.000018  -0.000040   0.000105
   56  H 16  S    0.000253  -0.006695  -0.000099   0.000120  -0.000032
   57  H 17  S   -0.000001   0.000068  -0.000031  -0.006920  -0.000118
   58  H 18  S   -0.000085  -0.000155  -0.000094   0.000106  -0.000042
   59  H 19  S    0.000012  -0.000092   0.000266  -0.000106  -0.000003
   60  H 20  S   -0.000001  -0.000067  -0.006868  -0.000089   0.000001

                     11         12         13         14         15
                   -1.3129    -1.0917    -1.0182    -0.9718    -0.9334
                     A          A          A          A          A   
    1  C  1  S   -0.000703  -0.056420  -0.102733   0.069565  -0.076337
    2  C  1  S    0.001711   0.149972   0.276469  -0.191482   0.219023
    3  C  1  X   -0.000066  -0.010689  -0.076122   0.034672   0.026295
    4  C  1  Y    0.000175   0.003414  -0.000871  -0.006842  -0.007498
    5  C  1  Z    0.000496   0.027091   0.030874  -0.004377   0.001788
    6  C  2  S   -0.001044  -0.058415  -0.147815   0.066227   0.012173
    7  C  2  S    0.002309   0.145764   0.383134  -0.175425  -0.032718
    8  C  2  X    0.000353   0.027053   0.041863  -0.030274   0.060016
    9  C  2  Y    0.000592   0.015949   0.037697  -0.008394  -0.037555
   10  C  2  Z    0.000817   0.013562   0.026965   0.015263  -0.067340
   11  C  3  S   -0.003134  -0.051107  -0.114863   0.018429   0.091591
   12  C  3  S    0.007674   0.135744   0.310168  -0.047033  -0.260638
   13  C  3  X    0.001976   0.020759   0.015346   0.008454  -0.000561
   14  C  3  Y    0.001137  -0.016685  -0.045812   0.016294  -0.003772
   15  C  3  Z    0.001367  -0.012716  -0.060902   0.049123  -0.006264
   16  C  4  S   -0.021440  -0.087686  -0.008640  -0.125943   0.084098
   17  C  4  S    0.053622   0.230027   0.026267   0.348117  -0.241667
   18  C  4  X    0.010316   0.042159  -0.029573   0.051117   0.010303
   19  C  4  Y    0.025214  -0.020299  -0.007982  -0.054244  -0.055108
   20  C  4  Z    0.000529  -0.032560  -0.010600  -0.007933  -0.007237
   21  C  5  S   -0.005571  -0.108609   0.008434  -0.128280  -0.047930
   22  C  5  S    0.012750   0.273119  -0.021866   0.342547   0.130773
   23  C  5  X   -0.002202  -0.004464  -0.023030  -0.046453   0.072365
   24  C  5  Y    0.005406   0.052815  -0.008570   0.047509  -0.037243
   25  C  5  Z    0.000848  -0.039246   0.007236   0.013815  -0.096372
   26  C  6  S   -0.003225  -0.112727   0.031044  -0.020115  -0.131097
   27  C  6  S    0.007685   0.296995  -0.082818   0.051491   0.372709
   28  C  6  X   -0.000723  -0.018810  -0.032903  -0.047248  -0.001782
   29  C  6  Y    0.001993   0.032592  -0.038178  -0.059567  -0.024167
   30  C  6  Z    0.002004   0.043229  -0.019637   0.079237   0.011340
   31  C  7  S   -0.006025  -0.103316   0.093465   0.105313  -0.008337
   32  C  7  S    0.014334   0.263300  -0.245731  -0.283103   0.026809
   33  C  7  X   -0.003418  -0.041652   0.021271   0.013304   0.001885
   34  C  7  Y    0.003715  -0.006539  -0.035212  -0.072847  -0.121730
   35  C  7  Z    0.004605   0.035901  -0.040986  -0.028533  -0.046658
   36  C  8  S   -0.021743  -0.081432   0.091463   0.105531   0.086812
   37  C  8  S    0.052869   0.204541  -0.237299  -0.279862  -0.235753
   38  C  8  X   -0.020371   0.001631  -0.014101  -0.033174   0.025083
   39  C  8  Y   -0.004913  -0.058748   0.050705   0.041735   0.009035
   40  C  8  Z    0.018088  -0.023601   0.027754   0.052105  -0.019284
   41  C  9  S   -0.127581  -0.035759   0.022139  -0.008441   0.070168
   42  C  9  S    0.295700   0.099328  -0.063440   0.023621  -0.207168
   43  C  9  X   -0.053293   0.028206  -0.046767  -0.058581  -0.033477
   44  C  9  Y    0.110163  -0.067314   0.006851  -0.079144   0.088610
   45  C  9  Z    0.092865  -0.055566   0.039704   0.033557   0.077847
   46  O 10  S   -0.214497   0.038238  -0.015263   0.006393  -0.049562
   47  O 10  S    0.749419  -0.142706   0.058504  -0.024992   0.198095
   48  O 10  X    0.056339  -0.003137  -0.008190  -0.015147  -0.004564
   49  O 10  Y   -0.118913   0.004161  -0.004156  -0.018613   0.018633
   50  O 10  Z   -0.101266   0.004308   0.003458   0.010120   0.015778
   51  H 11  S    0.000185   0.028694   0.060134  -0.048130   0.070689
   52  H 12  S    0.000422   0.037076   0.059979  -0.057592   0.064818
   53  H 13  S    0.000306   0.028996   0.087658  -0.042347  -0.008030
   54  H 14  S    0.003456   0.031875   0.071639  -0.011800  -0.082289
   55  H 15  S    0.001284   0.025217   0.068217  -0.006579  -0.078881
   56  H 16  S    0.008816   0.040036   0.010973   0.089828  -0.070811
   57  H 17  S    0.001521   0.051064  -0.000181   0.088612   0.040571
   58  H 18  S    0.000820   0.055681  -0.016067   0.008965   0.119133
   59  H 19  S    0.001621   0.049411  -0.055414  -0.078124   0.014405
   60  H 20  S    0.008802   0.035058  -0.052353  -0.075068  -0.064690

                     16         17         18         19         20
                   -0.8550    -0.7742    -0.7531    -0.7105    -0.6556
                     A          A          A          A          A   
    1  C  1  S   -0.132743   0.035948  -0.009404   0.068967   0.004019
    2  C  1  S    0.385034  -0.111695   0.033969  -0.220747  -0.011403
    3  C  1  X   -0.028783  -0.070736   0.070802  -0.132023   0.041437
    4  C  1  Y   -0.010469  -0.038172   0.014570  -0.075570  -0.131630
    5  C  1  Z   -0.047672   0.053499  -0.013785   0.124822  -0.050060
    6  C  2  S   -0.000761  -0.055339   0.046542  -0.115119  -0.004076
    7  C  2  S    0.002081   0.165220  -0.140843   0.355055   0.015592
    8  C  2  X    0.121992  -0.024630   0.004268  -0.050553  -0.063382
    9  C  2  Y   -0.066455  -0.032063   0.051667  -0.139022  -0.121800
   10  C  2  Z   -0.136369   0.018778   0.008361   0.022299   0.006682
   11  C  3  S    0.132123   0.014093  -0.036899   0.067774   0.001452
   12  C  3  S   -0.383366  -0.048101   0.114152  -0.217303  -0.003252
   13  C  3  X    0.050497  -0.002197  -0.013098   0.046114  -0.090153
   14  C  3  Y   -0.002485  -0.065986   0.088275  -0.166564  -0.049532
   15  C  3  Z    0.019071  -0.064550   0.017971  -0.079727   0.087457
   16  C  4  S   -0.062512   0.081794   0.041386  -0.015603  -0.028200
   17  C  4  S    0.180613  -0.253412  -0.121204   0.049816   0.097393
   18  C  4  X    0.050835   0.064453   0.011114   0.043317  -0.147671
   19  C  4  Y    0.029026  -0.098816   0.191869   0.113152   0.003964
   20  C  4  Z    0.035916  -0.080740  -0.040728   0.029728   0.173058
   21  C  5  S    0.006545  -0.095485   0.057772   0.047487   0.026673
   22  C  5  S   -0.018827   0.283232  -0.175332  -0.145297  -0.080791
   23  C  5  X   -0.056928   0.030804   0.116822   0.054521  -0.002778
   24  C  5  Y    0.033493  -0.083715   0.021947   0.080272  -0.157724
   25  C  5  Z    0.065930  -0.052539  -0.123483  -0.019635   0.043364
   26  C  6  S    0.071514   0.007700  -0.084262  -0.031719  -0.032987
   27  C  6  S   -0.206936  -0.029001   0.259975   0.098714   0.110886
   28  C  6  X   -0.055916  -0.098112   0.026379   0.072050   0.145491
   29  C  6  Y   -0.009112  -0.115080  -0.055653   0.053021  -0.212846
   30  C  6  Z   -0.029118   0.131333  -0.022236   0.000086  -0.143187
   31  C  7  S    0.052008   0.081135   0.082630  -0.019664   0.026251
   32  C  7  S   -0.151059  -0.246686  -0.244752   0.062687  -0.080053
   33  C  7  X   -0.017620  -0.042255  -0.082359  -0.000864   0.133062
   34  C  7  Y    0.062320   0.093625  -0.142135  -0.106332   0.011236
   35  C  7  Z    0.022412   0.097540   0.028206   0.002719  -0.098436
   36  C  8  S   -0.036957  -0.088602  -0.001484   0.039498  -0.032414
   37  C  8  S    0.106537   0.263456   0.016033  -0.118980   0.113909
   38  C  8  X   -0.046328  -0.028505  -0.165951  -0.049426   0.054956
   39  C  8  Y    0.019833   0.089886   0.032768  -0.082358   0.212739
   40  C  8  Z    0.050832   0.070943   0.165675   0.045509   0.043815
   41  C  9  S   -0.062140  -0.000508  -0.107368  -0.051608  -0.014040
   42  C  9  S    0.189392   0.001172   0.343326   0.167566   0.044896
   43  C  9  X    0.035705   0.148694   0.061865  -0.016308  -0.001299
   44  C  9  Y   -0.072861   0.135490  -0.036584  -0.097035   0.045245
   45  C  9  Z   -0.043728  -0.080813  -0.107105   0.019799   0.037610
   46  O 10  S    0.036102  -0.001264   0.058954   0.023324   0.029164
   47  O 10  S   -0.149811   0.005725  -0.258964  -0.104720  -0.139346
   48  O 10  X    0.015688   0.072973   0.050640   0.000113   0.039888
   49  O 10  Y   -0.028389   0.069866  -0.058076  -0.078275  -0.056393
   50  O 10  Z   -0.017527  -0.038791  -0.088927  -0.005898  -0.048699
   51  H 11  S    0.143531  -0.053856   0.022810  -0.121299   0.100453
   52  H 12  S    0.122398  -0.091282   0.032258  -0.183324  -0.074228
   53  H 13  S    0.000497   0.085899  -0.083313   0.236778   0.105180
   54  H 14  S   -0.119934  -0.049998   0.100627  -0.174451  -0.063080
   55  H 15  S   -0.142610  -0.032273   0.045640  -0.121647   0.094374
   56  H 16  S    0.054682  -0.139330  -0.095841   0.001014   0.195697
   57  H 17  S   -0.009148   0.143515  -0.110927  -0.115460   0.078715
   58  H 18  S   -0.075636  -0.027041   0.138638   0.039371   0.260304
   59  H 19  S   -0.060628  -0.142222  -0.155830   0.013161   0.080781
   60  H 20  S    0.034304   0.139455  -0.022083  -0.111474   0.195625

                     21         22         23         24         25
                   -0.6060    -0.5917    -0.5868    -0.5546    -0.5419
                     A          A          A          A          A   
    1  C  1  S   -0.015522  -0.007150   0.001086   0.000319   0.004292
    2  C  1  S    0.055526   0.020212   0.001524  -0.002840  -0.022792
    3  C  1  X    0.103831   0.000615   0.120179  -0.052614  -0.159665
    4  C  1  Y   -0.216043  -0.079012   0.107162  -0.248577  -0.183888
    5  C  1  Z   -0.162005  -0.115820  -0.064661   0.024616   0.066214
    6  C  2  S    0.027093   0.005960   0.004761   0.012581  -0.007377
    7  C  2  S   -0.083024  -0.016318  -0.014699  -0.041395   0.023909
    8  C  2  X   -0.122372  -0.066487  -0.108548   0.085832   0.132162
    9  C  2  Y   -0.219403  -0.075969   0.008646  -0.110496  -0.038090
   10  C  2  Z   -0.009775  -0.054995   0.097429  -0.066072  -0.146500
   11  C  3  S   -0.014167  -0.009102  -0.004542  -0.004194   0.001654
   12  C  3  S    0.051134   0.029062   0.011904   0.023735  -0.001147
   13  C  3  X   -0.224613  -0.097087  -0.082820   0.068469   0.102213
   14  C  3  Y   -0.039353   0.074723  -0.173562   0.164687   0.256020
   15  C  3  Z    0.199187   0.026528   0.010279   0.069481  -0.015746
   16  C  4  S    0.001464   0.054913  -0.012194  -0.020984  -0.006496
   17  C  4  S   -0.007503  -0.185645   0.036649   0.072028   0.021587
   18  C  4  X    0.005344   0.105902   0.058564   0.124883  -0.087702
   19  C  4  Y   -0.010590   0.091650  -0.235273  -0.029047  -0.120884
   20  C  4  Z   -0.012802  -0.059173  -0.042118  -0.224568   0.080270
   21  C  5  S    0.005235  -0.055770  -0.000232  -0.009398   0.017436
   22  C  5  S   -0.020172   0.190098  -0.000707   0.026124  -0.056492
   23  C  5  X    0.033565   0.015725  -0.145679  -0.053465  -0.079723
   24  C  5  Y    0.091245  -0.210937   0.121114   0.265622  -0.113573
   25  C  5  Z   -0.041891   0.074661   0.145843  -0.071274   0.152910
   26  C  6  S   -0.003886   0.056286   0.007233  -0.000610   0.005313
   27  C  6  S    0.011918  -0.196116  -0.019998   0.000037  -0.014002
   28  C  6  X   -0.050909   0.006906   0.073570  -0.072283   0.161785
   29  C  6  Y    0.055809   0.005984   0.192332   0.020374   0.029141
   30  C  6  Z    0.068468   0.047175  -0.116035   0.035560  -0.119290
   31  C  7  S   -0.000733  -0.046259  -0.006349   0.007859  -0.019775
   32  C  7  S   -0.008074   0.157012   0.040359  -0.016218   0.065757
   33  C  7  X   -0.145852   0.145930   0.016930   0.187884  -0.077127
   34  C  7  Y    0.031659   0.023038  -0.234061  -0.047424  -0.081325
   35  C  7  Z    0.182376  -0.120547  -0.132534  -0.192690   0.084071
   36  C  8  S   -0.014227   0.049926   0.020054   0.018411  -0.005403
   37  C  8  S    0.034824  -0.162991  -0.053672  -0.052173   0.015887
   38  C  8  X    0.012709  -0.087084  -0.161296   0.032476  -0.135196
   39  C  8  Y   -0.161070  -0.136580   0.077136   0.240783  -0.176030
   40  C  8  Z   -0.045562   0.041338   0.184190   0.042983   0.067130
   41  C  9  S    0.033248  -0.086018  -0.007431   0.011692   0.020777
   42  C  9  S   -0.113897   0.299707   0.022867  -0.038551  -0.070852
   43  C  9  X    0.023157  -0.023047   0.237798  -0.030107   0.144444
   44  C  9  Y   -0.053040   0.018444   0.187439   0.007067   0.083147
   45  C  9  Z   -0.016021   0.024869  -0.094558  -0.059708  -0.174119
   46  O 10  S   -0.034089   0.054692   0.002601  -0.009696  -0.028588
   47  O 10  S    0.167501  -0.269453  -0.012585   0.049426   0.148042
   48  O 10  X   -0.056523   0.075466   0.221002  -0.007816   0.047721
   49  O 10  Y    0.081018  -0.193178   0.172340   0.095983   0.263076
   50  O 10  Z    0.102408  -0.154585  -0.102882  -0.026915  -0.002373
   51  H 11  S    0.248347   0.114460  -0.010894   0.134127   0.045034
   52  H 12  S   -0.070922  -0.011132   0.128246  -0.209631  -0.208447
   53  H 13  S    0.154315   0.069448   0.028268   0.026799  -0.012860
   54  H 14  S   -0.075605   0.058761  -0.148253   0.144888   0.233749
   55  H 15  S    0.255354   0.075390   0.086567  -0.034759  -0.113001
   56  H 16  S   -0.002035  -0.186759   0.003469  -0.174483   0.127951
   57  H 17  S   -0.085261   0.263973  -0.043202  -0.210061   0.111716
   58  H 18  S   -0.065084  -0.101099  -0.049070  -0.052887   0.098179
   59  H 19  S   -0.176778   0.230055   0.072073   0.212577  -0.076606
   60  H 20  S   -0.086880  -0.209198  -0.025309   0.169482  -0.176569

                     26         27         28         29         30
                   -0.5156    -0.5060    -0.4866    -0.4785    -0.4506
                     A          A          A          A          A   
    1  C  1  S    0.010051  -0.008405   0.003793  -0.030589   0.007155
    2  C  1  S   -0.036973   0.017063  -0.017694   0.106790  -0.025490
    3  C  1  X    0.095698  -0.196735  -0.075908  -0.196094   0.095912
    4  C  1  Y    0.018441   0.052235   0.279868  -0.012482  -0.077516
    5  C  1  Z   -0.178854  -0.089845   0.054000   0.208586  -0.151935
    6  C  2  S   -0.009524  -0.017081  -0.007640   0.007273  -0.002193
    7  C  2  S    0.033620   0.060534   0.032985  -0.032392   0.007484
    8  C  2  X   -0.171058  -0.015840  -0.029438   0.284861  -0.118732
    9  C  2  Y    0.099012   0.077255  -0.247054   0.118753   0.085286
   10  C  2  Z    0.081378  -0.222811  -0.183671  -0.069058   0.117520
   11  C  3  S   -0.009840  -0.002882   0.031997  -0.005297  -0.006828
   12  C  3  S    0.026618   0.000504  -0.110508   0.023868   0.022048
   13  C  3  X    0.038708  -0.178430  -0.126528  -0.156169   0.120781
   14  C  3  Y   -0.049682   0.159870   0.173158  -0.179986  -0.065364
   15  C  3  Z   -0.187980  -0.079638   0.178196   0.202187  -0.145543
   16  C  4  S   -0.011528   0.008580   0.001372  -0.000466   0.003664
   17  C  4  S    0.035798  -0.042944  -0.004778   0.008657  -0.004382
   18  C  4  X    0.242539   0.137323  -0.016572  -0.015128  -0.220361
   19  C  4  Y    0.080574  -0.044357   0.135576   0.067536   0.139878
   20  C  4  Z   -0.079539   0.213608   0.017017  -0.025584   0.200481
   21  C  5  S   -0.004805  -0.021111  -0.005593   0.007888  -0.000225
   22  C  5  S    0.018972   0.074323   0.022299  -0.028142   0.000938
   23  C  5  X   -0.008437   0.202158   0.064028   0.023488   0.247175
   24  C  5  Y    0.020179   0.127239  -0.098676  -0.022900  -0.095828
   25  C  5  Z    0.159414   0.092099  -0.013386  -0.086053  -0.242551
   26  C  6  S    0.022073  -0.006617  -0.002823   0.011555  -0.004974
   27  C  6  S   -0.082693   0.013522   0.006786  -0.043245   0.007833
   28  C  6  X    0.184393   0.140640   0.000579  -0.061990  -0.164912
   29  C  6  Y   -0.186594   0.085382   0.066935  -0.165024   0.031264
   30  C  6  Z   -0.094669   0.208197   0.035305   0.017203   0.283883
   31  C  7  S    0.019229   0.000877   0.011858   0.002254  -0.003215
   32  C  7  S   -0.072365   0.001703  -0.030007  -0.011434   0.021387
   33  C  7  X    0.109455   0.104569  -0.012131   0.165325   0.129507
   34  C  7  Y    0.067438  -0.141617  -0.096523   0.111470  -0.034105
   35  C  7  Z   -0.002494   0.116745  -0.135157  -0.045351  -0.092025
   36  C  8  S   -0.010107   0.003956  -0.000975   0.003724   0.011155
   37  C  8  S    0.036163  -0.009173   0.014306  -0.015825  -0.036076
   38  C  8  X    0.011158   0.160509  -0.108600  -0.038311  -0.092683
   39  C  8  Y   -0.046173   0.067385   0.142499  -0.113274   0.026124
   40  C  8  Z    0.053795   0.137776   0.025175   0.101070   0.120983
   41  C  9  S    0.006463   0.008415   0.007585  -0.014745   0.000397
   42  C  9  S   -0.014440  -0.034052  -0.021444   0.057969   0.001197
   43  C  9  X    0.105844   0.164738  -0.052787   0.182232   0.104053
   44  C  9  Y   -0.293441  -0.030687  -0.134765  -0.110155  -0.025190
   45  C  9  Z   -0.074876   0.246391  -0.210111  -0.046438  -0.148385
   46  O 10  S   -0.055818   0.010008  -0.034641  -0.021418  -0.018414
   47  O 10  S    0.297695  -0.053859   0.190411   0.119231   0.105884
   48  O 10  X   -0.139652   0.174062  -0.224490   0.078186   0.029304
   49  O 10  Y    0.190544  -0.112893   0.213259   0.161799   0.274228
   50  O 10  Z    0.319417   0.124378   0.110257   0.146903   0.038809
   51  H 11  S    0.102722  -0.021078  -0.270395  -0.110481   0.166494
   52  H 12  S    0.067774   0.011739   0.217637  -0.091817  -0.010120
   53  H 13  S    0.008033  -0.039231   0.239698  -0.251675  -0.015753
   54  H 14  S    0.006013   0.094234   0.076022  -0.244321   0.002589
   55  H 15  S   -0.109006   0.081571   0.114173   0.277017  -0.157233
   56  H 16  S   -0.181674   0.079688  -0.000213  -0.014166   0.256856
   57  H 17  S    0.031002  -0.085721   0.092949  -0.021930  -0.011988
   58  H 18  S    0.223848  -0.056499  -0.065189   0.048878  -0.233065
   59  H 19  S    0.052407  -0.023371   0.049584   0.163897   0.174715
   60  H 20  S   -0.016211   0.105858   0.092514  -0.129380  -0.037577

                     31         32         33         34         35
                   -0.4448    -0.4166    -0.3568    -0.3143    -0.2712
                     A          A          A          A          A   
    1  C  1  S   -0.009211   0.002095  -0.005647  -0.000052  -0.027303
    2  C  1  S    0.037911   0.006785   0.006869   0.000761   0.131684
    3  C  1  X   -0.010454   0.208274  -0.032124  -0.006427   0.254046
    4  C  1  Y   -0.184349   0.020415   0.110268  -0.026380  -0.033747
    5  C  1  Z    0.072908   0.163806  -0.118191   0.017810   0.301034
    6  C  2  S    0.002704   0.020826   0.012980  -0.003309   0.006645
    7  C  2  S   -0.015271  -0.073849  -0.049587   0.010588  -0.028333
    8  C  2  X    0.108243   0.015410   0.082548   0.012423   0.019363
    9  C  2  Y    0.115935  -0.211884  -0.114689   0.014727  -0.034054
   10  C  2  Z    0.071841   0.122760   0.077479   0.006091   0.134326
   11  C  3  S   -0.014588  -0.005347  -0.011604  -0.002309   0.012013
   12  C  3  S    0.052136   0.021630   0.066244   0.010740  -0.071760
   13  C  3  X    0.000925   0.114948   0.256898  -0.004032  -0.187771
   14  C  3  Y   -0.126337   0.154055  -0.071511  -0.026801   0.077350
   15  C  3  Z   -0.010920   0.053766   0.233265   0.007565  -0.162621
   16  C  4  S    0.023867   0.008948  -0.015856  -0.031822   0.012603
   17  C  4  S   -0.087568  -0.029129   0.085465   0.144801  -0.069302
   18  C  4  X   -0.002889  -0.045227  -0.196390   0.125240   0.220806
   19  C  4  Y    0.128768   0.025702   0.069794   0.308172   0.030530
   20  C  4  Z    0.000459  -0.004306  -0.257936  -0.002630   0.235121
   21  C  5  S    0.004608   0.017119   0.011810   0.007295   0.001801
   22  C  5  S   -0.007955  -0.063381  -0.041845  -0.023273  -0.003352
   23  C  5  X   -0.042377  -0.113778  -0.029715   0.093218  -0.007208
   24  C  5  Y   -0.214106  -0.087850  -0.078593  -0.086963   0.017713
   25  C  5  Z    0.098006  -0.104554  -0.027696   0.081800   0.088755
   26  C  6  S   -0.002388  -0.006457   0.018112  -0.001437  -0.005913
   27  C  6  S    0.020104   0.037298  -0.078657   0.009208   0.050615
   28  C  6  X    0.030462  -0.214219   0.211290   0.046779  -0.209933
   29  C  6  Y    0.333685   0.012246   0.036578   0.075041   0.010491
   30  C  6  Z   -0.089770  -0.145616   0.114174  -0.042463  -0.169801
   31  C  7  S   -0.009996   0.003077  -0.009188  -0.012260   0.006447
   32  C  7  S    0.052097  -0.008960   0.036258   0.044396  -0.025672
   33  C  7  X   -0.103971  -0.000003   0.257661  -0.166220   0.235054
   34  C  7  Y   -0.323074   0.028233  -0.163397   0.028904  -0.020332
   35  C  7  Z   -0.022224  -0.032729   0.335998  -0.029011   0.214408
   36  C  8  S   -0.005650  -0.000668   0.006439   0.037099   0.005664
   37  C  8  S    0.038465   0.002649  -0.027218  -0.165555  -0.027867
   38  C  8  X   -0.001663   0.059729   0.310658   0.138241   0.290094
   39  C  8  Y    0.192602  -0.039922  -0.078799   0.099169  -0.098497
   40  C  8  Z    0.087196   0.088422   0.244133  -0.282794   0.232296
   41  C  9  S   -0.002636  -0.002313   0.006955   0.001060  -0.009000
   42  C  9  S    0.011144   0.012105  -0.025225  -0.002721   0.037568
   43  C  9  X   -0.042049   0.310672  -0.048875  -0.093957  -0.110446
   44  C  9  Y   -0.173926  -0.131867   0.019944  -0.134252  -0.017005
   45  C  9  Z    0.023439   0.279559   0.001349   0.106056  -0.096192
   46  O 10  S   -0.011108  -0.002739   0.000767  -0.000306   0.000258
   47  O 10  S    0.064594   0.016490  -0.006714   0.001536   0.001256
   48  O 10  X   -0.223303   0.316271   0.042535   0.561762  -0.193837
   49  O 10  Y   -0.118235  -0.105765   0.069305   0.483478   0.195097
   50  O 10  Z    0.230207   0.366685  -0.098398  -0.252733  -0.300729
   51  H 11  S    0.110759  -0.078777  -0.008662   0.010946  -0.072671
   52  H 12  S   -0.182766   0.044859   0.124396  -0.027630  -0.031402
   53  H 13  S   -0.164992   0.173187   0.060625  -0.018768   0.025311
   54  H 14  S   -0.103157   0.160373  -0.040410  -0.041102   0.069991
   55  H 15  S    0.041660  -0.086386  -0.069293   0.016595   0.049209
   56  H 16  S   -0.070048   0.000732  -0.103227  -0.110562   0.042295
   57  H 17  S    0.248212   0.050247   0.069496   0.113907   0.009399
   58  H 18  S   -0.190257  -0.067991   0.011890  -0.009174  -0.080032
   59  H 19  S   -0.094968   0.022739  -0.058412  -0.116498   0.009535
   60  H 20  S    0.203979  -0.017874   0.035681   0.120123   0.000825

                     36         37         38         39         40
                   -0.2234     0.2067     0.2159     0.3540     0.3894
                     A          A          A          A          A   
    1  C  1  S   -0.025326  -0.000466  -0.041471  -0.031139  -0.030401
    2  C  1  S    0.090296   0.028823   0.208751   0.134103   0.159998
    3  C  1  X    0.121814   0.126674   0.284795   0.237865   0.284404
    4  C  1  Y   -0.023101  -0.016774  -0.038116  -0.113652  -0.015828
    5  C  1  Z    0.159547   0.071407   0.298505   0.347433   0.219674
    6  C  2  S    0.021706  -0.018749  -0.007572   0.001263  -0.007706
    7  C  2  S   -0.105098   0.105415   0.043092  -0.009085   0.057397
    8  C  2  X    0.319491  -0.312229  -0.164241   0.033148  -0.197668
    9  C  2  Y   -0.216612   0.167786   0.089021  -0.015743   0.114385
   10  C  2  Z    0.382022  -0.389447  -0.124499   0.046468  -0.239831
   11  C  3  S   -0.030055  -0.025797   0.029768   0.040276  -0.021913
   12  C  3  S    0.113610   0.149929  -0.130270  -0.184661   0.121926
   13  C  3  X    0.201775   0.243338  -0.158603  -0.362163   0.158684
   14  C  3  Y   -0.059726  -0.029598   0.047166   0.154789   0.038500
   15  C  3  Z    0.170505   0.262498  -0.111481  -0.347985   0.187010
   16  C  4  S    0.031974  -0.009144  -0.022285  -0.051461  -0.008583
   17  C  4  S   -0.123849   0.071869   0.097637   0.249590   0.063754
   18  C  4  X    0.134802  -0.172600  -0.188187  -0.375448   0.025463
   19  C  4  Y   -0.043194   0.051458   0.027825   0.003568  -0.044420
   20  C  4  Z    0.171692  -0.132468  -0.188305  -0.400617   0.026910
   21  C  5  S   -0.022667  -0.019160  -0.006824  -0.002374   0.020653
   22  C  5  S    0.107805   0.108373   0.037467   0.013713  -0.115166
   23  C  5  X    0.427571   0.462249   0.129006   0.059301  -0.091162
   24  C  5  Y    0.100975   0.056021   0.036297  -0.011027  -0.060814
   25  C  5  Z    0.334847   0.368560   0.177156  -0.046050  -0.089660
   26  C  6  S    0.030045  -0.019813   0.009487   0.053895   0.006560
   27  C  6  S   -0.119070   0.111383  -0.017251  -0.270017  -0.014098
   28  C  6  X    0.209363  -0.216011   0.069778   0.412216   0.147308
   29  C  6  Y   -0.026837   0.029389   0.007449   0.001773  -0.030671
   30  C  6  Z    0.177288  -0.254642   0.029018   0.326075   0.140777
   31  C  7  S    0.008318   0.015185   0.009057  -0.001348  -0.001002
   32  C  7  S   -0.034231  -0.073501  -0.042291   0.008455   0.007879
   33  C  7  X   -0.038715  -0.139962   0.337174  -0.295235   0.273208
   34  C  7  Y    0.060440   0.145333  -0.058174   0.091928  -0.088113
   35  C  7  Z   -0.067504  -0.173743   0.313292  -0.288140   0.257512
   36  C  8  S   -0.004765  -0.007497  -0.002923   0.001410  -0.002306
   37  C  8  S    0.021405   0.033506   0.013108  -0.008376   0.012989
   38  C  8  X   -0.145546   0.195383  -0.203180   0.162037  -0.390315
   39  C  8  Y    0.033883  -0.085826   0.075140  -0.064573   0.154281
   40  C  8  Z   -0.098070   0.226273  -0.206358   0.177399  -0.402336
   41  C  9  S    0.009036   0.018638   0.003403   0.001757  -0.000268
   42  C  9  S   -0.038308  -0.089410  -0.018372  -0.011669   0.003382
   43  C  9  X    0.031709   0.100380  -0.285526   0.151180   0.413807
   44  C  9  Y    0.060901   0.085934   0.137142  -0.063430  -0.152494
   45  C  9  Z   -0.006707   0.035674  -0.312730   0.149508   0.418454
   46  O 10  S   -0.000120  -0.002086  -0.000906  -0.001451   0.000128
   47  O 10  S   -0.001298   0.009066   0.004987   0.009503  -0.001440
   48  O 10  X   -0.057714  -0.094648   0.350383  -0.113933  -0.300106
   49  O 10  Y   -0.070182  -0.032216  -0.151019   0.031465   0.113120
   50  O 10  Z    0.027038  -0.053143   0.360939  -0.127078  -0.296526
   51  H 11  S    0.002691  -0.044965  -0.056618   0.011866  -0.037138
   52  H 12  S    0.072353  -0.130744  -0.061003   0.066911  -0.071168
   53  H 13  S    0.047137  -0.016164  -0.004498   0.002212   0.010140
   54  H 14  S    0.060965  -0.129076  -0.043961  -0.032530  -0.079862
   55  H 15  S   -0.003104  -0.076829   0.005828  -0.001332  -0.040102
   56  H 16  S    0.005901  -0.067676   0.002779  -0.019006  -0.091460
   57  H 17  S   -0.061087  -0.020077  -0.006471   0.002966   0.030495
   58  H 18  S    0.005108  -0.054461  -0.068524   0.057254  -0.086162
   59  H 19  S    0.023130   0.030704   0.008689  -0.006582  -0.017232
   60  H 20  S   -0.024819  -0.041533  -0.022116   0.013725  -0.016488

                     41         42         43         44         45
                    0.5165     0.5729     0.5898     0.6220     0.6227
                     A          A          A          A          A   
    1  C  1  S   -0.010618   0.024669   0.003103  -0.007567   0.036469
    2  C  1  S    0.037501  -0.159155  -0.018437   0.051054  -0.230160
    3  C  1  X    0.346156   0.034784   0.034656  -0.031022   0.010800
    4  C  1  Y   -0.051829   0.233609   0.220585   0.063310   0.388666
    5  C  1  Z    0.308291   0.097886  -0.014702  -0.007146   0.081762
    6  C  2  S   -0.031065   0.020531   0.013930  -0.000735   0.042411
    7  C  2  S    0.194218  -0.127462  -0.087408   0.001631  -0.268130
    8  C  2  X   -0.204233   0.119855   0.098812  -0.050084   0.254892
    9  C  2  Y    0.165938   0.224912   0.173347  -0.001311   0.422557
   10  C  2  Z   -0.257427  -0.006131   0.006997   0.012075   0.020488
   11  C  3  S   -0.011461   0.013113   0.025917   0.027880   0.030962
   12  C  3  S    0.041878  -0.084610  -0.166083  -0.175266  -0.194684
   13  C  3  X    0.317156   0.171767   0.153136   0.009188   0.237623
   14  C  3  Y   -0.044357   0.200425   0.068412  -0.148113   0.279305
   15  C  3  Z    0.354639  -0.086354  -0.050411   0.042527  -0.166459
   16  C  4  S    0.043394  -0.000291   0.047385   0.111520  -0.010287
   17  C  4  S   -0.229969  -0.020668  -0.290861  -0.655838   0.075785
   18  C  4  X    0.369892   0.195734   0.087840  -0.249804  -0.173675
   19  C  4  Y   -0.135469   0.332835  -0.019392  -0.484734  -0.182215
   20  C  4  Z    0.330197  -0.150025  -0.162412  -0.163128   0.097082
   21  C  5  S    0.010264   0.043935   0.019024   0.002414  -0.050080
   22  C  5  S   -0.078888  -0.274518  -0.121443  -0.019887   0.314938
   23  C  5  X   -0.315753   0.035408   0.006274   0.005266  -0.003241
   24  C  5  Y   -0.062535   0.327436   0.168506   0.005951  -0.314447
   25  C  5  Z   -0.235007  -0.081020  -0.103640   0.201034   0.114915
   26  C  6  S    0.040377   0.055072  -0.065053  -0.015302   0.006479
   27  C  6  S   -0.213913  -0.347938   0.377571   0.089002  -0.023837
   28  C  6  X    0.295387  -0.195395   0.250616  -0.128235  -0.035719
   29  C  6  Y   -0.078748   0.268559   0.397414   0.155257  -0.329382
   30  C  6  Z    0.410438   0.101557  -0.050830   0.092061  -0.076485
   31  C  7  S   -0.015739   0.050687   0.021229   0.051251  -0.048329
   32  C  7  S    0.089694  -0.309298  -0.113763  -0.342868   0.288395
   33  C  7  X   -0.251604  -0.180172   0.331044  -0.145901  -0.017728
   34  C  7  Y    0.002510  -0.012341   0.436490   0.047474  -0.198232
   35  C  7  Z   -0.197523   0.238361  -0.243455   0.206571  -0.054040
   36  C  8  S    0.014586  -0.010839   0.023345   0.111049   0.000272
   37  C  8  S   -0.084978   0.041424  -0.120261  -0.683294   0.002883
   38  C  8  X    0.192697  -0.216109   0.429750   0.057678  -0.071239
   39  C  8  Y   -0.095234  -0.113717   0.272748  -0.329266  -0.061687
   40  C  8  Z    0.205695   0.124386  -0.288754  -0.234649   0.040673
   41  C  9  S   -0.017887   0.090812  -0.089000  -0.128737  -0.018639
   42  C  9  S    0.102233  -0.535365   0.525825   0.757153   0.107637
   43  C  9  X   -0.265566   0.013016   0.281537   0.038895  -0.125576
   44  C  9  Y    0.010335   0.124534   0.092135  -0.455173  -0.135770
   45  C  9  Z   -0.221611   0.055151  -0.241951  -0.099783   0.059828
   46  O 10  S    0.002662  -0.018911   0.013330   0.007188   0.003876
   47  O 10  S   -0.015603   0.118468  -0.079601  -0.029320  -0.025284
   48  O 10  X    0.134683   0.037766  -0.109409   0.008421   0.025805
   49  O 10  Y   -0.013389  -0.135253   0.016891   0.091900   0.063979
   50  O 10  Z    0.130393  -0.104921   0.111644  -0.022373   0.000844
   51  H 11  S    0.069047   0.309054   0.174699   0.021167   0.463833
   52  H 12  S   -0.001966  -0.125789  -0.220039  -0.078025  -0.241216
   53  H 13  S   -0.041944   0.347791   0.258766  -0.030110   0.652137
   54  H 14  S   -0.011254  -0.215439  -0.043158   0.224799  -0.278507
   55  H 15  S    0.066287   0.273350   0.251934   0.035121   0.439602
   56  H 16  S    0.032555   0.311181   0.348957   0.244156  -0.261878
   57  H 17  S   -0.021335   0.518006   0.274541  -0.057418  -0.517345
   58  H 18  S    0.053282   0.538512  -0.087286   0.171715  -0.235266
   59  H 19  S   -0.003852   0.483266  -0.424420   0.398805  -0.138595
   60  H 20  S    0.085815   0.166064  -0.390550   0.656394   0.100392

                     46         47         48         49         50
                    0.6647     0.6976     0.7143     0.7259     0.7411
                     A          A          A          A          A   
    1  C  1  S    0.034342  -0.116274  -0.026718   0.126761  -0.066423
    2  C  1  S   -0.215414   0.739410   0.161624  -0.811134   0.419181
    3  C  1  X    0.052132   0.121975  -0.195692   0.028008   0.216353
    4  C  1  Y   -0.271751  -0.070873   0.193287  -0.530700   0.014025
    5  C  1  Z   -0.001963  -0.401769   0.170436   0.082852  -0.268517
    6  C  2  S   -0.010944   0.070761   0.062441  -0.014099  -0.006886
    7  C  2  S    0.064247  -0.431616  -0.387675   0.087429   0.069362
    8  C  2  X    0.044935   0.112716  -0.044361   0.230718   0.053655
    9  C  2  Y   -0.076497  -0.009920   0.046770  -0.124123  -0.050671
   10  C  2  Z   -0.116499  -0.045860   0.063069  -0.251493   0.006573
   11  C  3  S    0.001834  -0.088453  -0.122569  -0.090369  -0.066982
   12  C  3  S   -0.012322   0.553886   0.785953   0.581915   0.421671
   13  C  3  X    0.172556   0.057548  -0.405012   0.204471  -0.028381
   14  C  3  Y    0.031484   0.184387   0.183317   0.401597   0.278176
   15  C  3  Z   -0.151288  -0.204379   0.172173  -0.268199   0.035748
   16  C  4  S    0.013325  -0.024194  -0.045370   0.025255   0.130877
   17  C  4  S   -0.091160   0.154114   0.300388  -0.141890  -0.817996
   18  C  4  X    0.359999   0.229146  -0.017763  -0.126825  -0.132127
   19  C  4  Y    0.054666  -0.113118  -0.053444  -0.092905   0.164134
   20  C  4  Z   -0.412661  -0.069547   0.202220   0.141306  -0.057508
   21  C  5  S    0.000250   0.056016   0.046790   0.001585  -0.146721
   22  C  5  S   -0.008875  -0.353556  -0.306043  -0.006718   0.935289
   23  C  5  X    0.270694   0.012849   0.006078  -0.110085  -0.117360
   24  C  5  Y   -0.037049  -0.094495   0.017227   0.009140   0.081784
   25  C  5  Z   -0.187050  -0.067312   0.046043   0.133547  -0.067353
   26  C  6  S    0.080160  -0.079922   0.031168  -0.051504   0.115964
   27  C  6  S   -0.479255   0.509603  -0.192380   0.304643  -0.728562
   28  C  6  X   -0.079791   0.313078  -0.281905  -0.034381  -0.052292
   29  C  6  Y   -0.425593  -0.178541  -0.004444   0.187903   0.256618
   30  C  6  Z   -0.222373  -0.032010   0.238496   0.039571  -0.104897
   31  C  7  S   -0.120858   0.061841  -0.085981   0.052972  -0.026066
   32  C  7  S    0.744778  -0.409114   0.547919  -0.325577   0.160918
   33  C  7  X    0.077786  -0.128811  -0.005556   0.023931   0.091496
   34  C  7  Y   -0.275253   0.052998   0.078264   0.125680  -0.125952
   35  C  7  Z   -0.075915  -0.008407   0.025342   0.113873  -0.113167
   36  C  8  S    0.091382  -0.003972   0.106839  -0.003606  -0.043157
   37  C  8  S   -0.551651   0.011675  -0.682819   0.019111   0.287591
   38  C  8  X   -0.003933   0.006147   0.071570   0.068393  -0.044033
   39  C  8  Y   -0.129408  -0.249815   0.063985   0.049820   0.092494
   40  C  8  Z   -0.095818  -0.021114  -0.042412  -0.072615   0.038358
   41  C  9  S    0.005063   0.028058  -0.048577  -0.040349  -0.023995
   42  C  9  S   -0.042757  -0.182639   0.293066   0.242755   0.143303
   43  C  9  X    0.272980   0.001379   0.215494  -0.056277  -0.216426
   44  C  9  Y    0.062580  -0.054109   0.235332  -0.061679  -0.198974
   45  C  9  Z   -0.218358  -0.146248  -0.226375  -0.038296   0.161029
   46  O 10  S   -0.017011  -0.020919   0.011313   0.007640   0.010138
   47  O 10  S    0.120881   0.143789  -0.074646  -0.050687  -0.069295
   48  O 10  X   -0.017807   0.073878  -0.094024  -0.004790   0.030608
   49  O 10  Y   -0.172177  -0.140264  -0.013466   0.059247   0.129876
   50  O 10  Z   -0.065370  -0.083182   0.124303   0.043325   0.002229
   51  H 11  S   -0.112414  -0.651474   0.182817   0.042715  -0.388115
   52  H 12  S    0.322733  -0.426003  -0.128430   0.860214  -0.323617
   53  H 13  S   -0.083347   0.285442   0.225527  -0.044238  -0.021876
   54  H 14  S   -0.088653  -0.457910  -0.429611  -0.737246  -0.416130
   55  H 15  S    0.220462  -0.092064  -0.733748   0.089373  -0.202324
   56  H 16  S    0.581450   0.083299  -0.285503  -0.112563   0.403514
   57  H 17  S    0.041736   0.117233   0.148238  -0.032332  -0.392581
   58  H 18  S   -0.089063  -0.534355   0.327883  -0.001789   0.513297
   59  H 19  S   -0.468351   0.288940  -0.261319   0.173252  -0.188656
   60  H 20  S    0.420341   0.199398   0.256496  -0.082433  -0.185398

                     51         52         53         54         55
                    0.7566     0.7867     0.8227     0.8762     0.8828
                     A          A          A          A          A   
    1  C  1  S    0.067797   0.037202  -0.025599   0.010215  -0.023119
    2  C  1  S   -0.438011  -0.232742   0.159037  -0.071248   0.168409
    3  C  1  X   -0.186363   0.370579  -0.257339  -0.005101  -0.197932
    4  C  1  Y    0.306596   0.298384  -0.227530  -0.159747  -0.093408
    5  C  1  Z    0.348021  -0.290571   0.235123  -0.002350   0.043031
    6  C  2  S   -0.024330  -0.164972   0.110691   0.012977  -0.001671
    7  C  2  S    0.160223   1.092121  -0.740527  -0.088133   0.011580
    8  C  2  X   -0.056487   0.117373  -0.103823   0.074749  -0.227331
    9  C  2  Y    0.006349  -0.164999   0.109160   0.191920   0.150387
   10  C  2  Z    0.094228   0.208071  -0.145475  -0.023670   0.277702
   11  C  3  S   -0.056033   0.053352  -0.020933   0.006667   0.023388
   12  C  3  S    0.360545  -0.335164   0.131475  -0.052689  -0.168484
   13  C  3  X   -0.402667  -0.034549   0.030639  -0.024032   0.013209
   14  C  3  Y    0.136118   0.488448  -0.412403  -0.091784   0.197521
   15  C  3  Z    0.368070   0.166174  -0.116168   0.059613   0.142436
   16  C  4  S    0.054538  -0.053862  -0.012673   0.033180   0.082781
   17  C  4  S   -0.344907   0.339238   0.082749  -0.235783  -0.574552
   18  C  4  X    0.212896  -0.026814   0.100682  -0.383204  -0.018176
   19  C  4  Y    0.005388   0.293453   0.492011   0.251401   0.517575
   20  C  4  Z   -0.262587   0.160285   0.075160   0.367615  -0.230885
   21  C  5  S   -0.033049  -0.046114  -0.118376  -0.058173  -0.003298
[...]
 18   H            X -0.04549199  0.01787003 -0.02668621 -0.04298226 -0.00933809
                   Y -0.09881616  0.00822998  0.02524370 -0.08740398 -0.01721755
                   Z -0.04084690  0.00939303 -0.00353979 -0.00161966 -0.00440199
 19   H            X -0.00772433  0.00039974  0.00012947 -0.09519631 -0.02129055
                   Y -0.06995626  0.00371278  0.02031317 -0.15095634 -0.02927594
                   Z -0.01179883  0.00076278  0.01114254  0.03178297  0.00852372
 20   H            X  0.00502854 -0.00008253 -0.00443151 -0.08769765 -0.06870292
                   Y  0.01621515  0.00004572 -0.01086602 -0.08262643 -0.00148730
                   Z -0.00353468 -0.00135915  0.01189625  0.07002222  0.06916562

 TRANS. SAYVETZ    X -0.00000264 -0.00000183 -0.00000256 -0.00000110 -0.00000096
                   Y -0.00000139  0.00000110 -0.00000107 -0.00000152  0.00000016
                   Z  0.00000467  0.00000175  0.00000221  0.00000191  0.00000178
               TOTAL  0.00000554  0.00000276  0.00000355  0.00000268  0.00000204

   ROT. SAYVETZ    X  0.00002743 -0.00019739 -0.00002191 -0.00002845  0.00001463
                   Y  0.00011525  0.00012314 -0.00012027  0.00001953 -0.00001637
                   Z -0.00001438 -0.00000813 -0.00000145 -0.00000690  0.00001316
               TOTAL  0.00011933  0.00023279  0.00012225  0.00003519  0.00002560

                           51          52          53          54          55
       FREQUENCY:      3630.08     3634.32     3686.09     3693.06     3695.66  
        SYMMETRY:         A           A           A           A           A   
    REDUCED MASS:      1.06267     1.06462     1.09101     1.09411     1.09590
    IR INTENSITY:      0.09887     0.07246     0.19342     0.04548     0.14158

  1   C            X -0.02991206  0.01593445 -0.00384676  0.00047520  0.00690479
                   Y -0.00730428  0.00451252 -0.00223951  0.00159149  0.00560476
                   Z  0.05141858 -0.02852025  0.00466074 -0.00113044 -0.00650401
  2   C            X -0.00109547 -0.00496121  0.00791721 -0.00435020 -0.03595700
                   Y -0.00911816 -0.00014470  0.01573625 -0.00918664 -0.07204078
                   Z  0.00061226  0.00532678 -0.00079166  0.00019757  0.00355430
  3   C            X  0.01725731  0.03367599  0.00179663 -0.00081286 -0.00111439
                   Y -0.02385513 -0.04681769 -0.00610272  0.00167329  0.01055482
                   Z -0.01074754 -0.01950476 -0.00159562  0.00171337  0.00281956
  4   C            X -0.00157196 -0.00142936  0.03163902  0.02996281  0.00618656
                   Y -0.00107608  0.00039989  0.01285529  0.00972144  0.00151660
                   Z  0.00260361  0.00074364 -0.04627909 -0.04354714 -0.00806758
  5   C            X  0.00064816  0.00051362 -0.00816931 -0.00191994  0.00002503
                   Y  0.00357774  0.00100654 -0.03839564  0.00886484 -0.00140880
                   Z -0.00078173 -0.00059836  0.01015506  0.00171514  0.00004816
  6   C            X  0.00178462  0.00059851 -0.02226013  0.03639593 -0.01170411
                   Y -0.00233468 -0.00094184  0.02845908 -0.04263020  0.01338247
                   Z -0.00142423  0.00068411  0.01452170 -0.02434567  0.00867486
  7   C            X -0.00070219  0.00002701  0.00540917 -0.01192766  0.00564435
                   Y -0.00002161  0.00006526 -0.00008584 -0.00045442  0.00048534
                   Z -0.00000184  0.00010822 -0.00552053  0.01180879 -0.00551988
  8   C            X  0.00014492  0.00001336 -0.00173556  0.00389933 -0.00171138
                   Y  0.00049445  0.00017628 -0.00286136  0.00712639 -0.00304809
                   Z -0.00005994  0.00008979  0.00042050 -0.00094057  0.00047017
  9   C            X -0.00015135 -0.00015581 -0.00068357 -0.00102622 -0.00006219
                   Y  0.00020548 -0.00000913 -0.00106280 -0.00152425 -0.00014318
                   Z -0.00025006 -0.00026294  0.00017157  0.00037088 -0.00005361
 10   O            X  0.00000058 -0.00002164  0.00002872  0.00006808  0.00000777
                   Y  0.00000001  0.00003777  0.00007003  0.00022933  0.00003121
                   Z  0.00001740  0.00000495 -0.00001935  0.00001026  0.00002825
 11   H            X  0.13449079 -0.07248996  0.01099170 -0.00184292 -0.00892313
                   Y -0.44724804  0.24063669 -0.03067546  0.00397936  0.02316935
                   Z -0.37751635  0.20250819 -0.02482177  0.00334687  0.01901235
 12   H            X  0.17133996 -0.09306567  0.01898305 -0.00614549 -0.02447292
                   Y  0.53379168 -0.29107129  0.05451050 -0.01982706 -0.08308441
                   Z -0.19398923  0.10698951 -0.01812476  0.00694756  0.02881898
 13   H            X  0.06140880  0.01641271 -0.08297649  0.04842003  0.38594827
                   Y  0.12837876  0.03960336 -0.17619028  0.10229075  0.81445867
                   Z -0.00991941 -0.00078458  0.01303359 -0.00734118 -0.05827166
 14   H            X  0.06559514  0.12395075  0.01520145 -0.00323573 -0.01977387
                   Y  0.30717190  0.59121018  0.06267273 -0.01393769 -0.08874618
                   Z -0.05797026 -0.11165313 -0.01042291  0.00257794  0.01902598
 15   H            X -0.26194961 -0.49575356 -0.03033367  0.01026357  0.02110340
                   Y -0.04260441 -0.08118165 -0.00510733  0.00183946  0.00298413
                   Z  0.16111660  0.30556029  0.02094823 -0.00733113 -0.01533697
 16   H            X  0.01947947  0.00583692 -0.35248558 -0.32571329 -0.06149149
                   Y  0.00866094  0.00256599 -0.13790052 -0.12556183 -0.02325018
                   Z -0.03295853 -0.01009029  0.53338889  0.49088988  0.09118053
 17   H            X -0.00828743 -0.00267387  0.08432757 -0.01467384  0.00384006
                   Y -0.04171248 -0.01310887  0.45237316 -0.08357534  0.02107620
                   Z  0.01024295  0.00330818 -0.11537162  0.02004392 -0.00531257
 18   H            X -0.02374788 -0.00845139  0.26531288 -0.41090933  0.13005903
                   Y  0.02698707  0.00962906 -0.31624173  0.48869885 -0.15502332
                   Z  0.01298433  0.00433789 -0.16810000  0.26203560 -0.08430514
 19   H            X  0.00563865  0.00071606 -0.06332860  0.13816408 -0.06435231
                   Y  0.00172733 -0.00005785 -0.01272260  0.02743269 -0.01279639
                   Z -0.00538628 -0.00078331  0.05999114 -0.13004811  0.06068038
 20   H            X -0.00206911 -0.00061802  0.01398965 -0.03904102  0.01643798
                   Y -0.00563944 -0.00168051  0.03312312 -0.08947361  0.03767753
                   Z  0.00054590 -0.00017232 -0.00138541  0.00356678 -0.00142971

 TRANS. SAYVETZ    X -0.00000115 -0.00000047  0.00000016 -0.00000026 -0.00000011
                   Y  0.00000005  0.00000022 -0.00000136  0.00000073  0.00000014
                   Z  0.00000095  0.00000078  0.00000028  0.00000034  0.00000076
               TOTAL  0.00000149  0.00000093  0.00000139  0.00000084  0.00000078

   ROT. SAYVETZ    X  0.00002658  0.00000090 -0.00000333  0.00001532 -0.00000732
                   Y  0.00000256 -0.00003196  0.00000590  0.00003853  0.00000097
                   Z -0.00002000 -0.00001785  0.00001337 -0.00001204  0.00001194
               TOTAL  0.00003337  0.00003662  0.00001498  0.00004318  0.00001404

                           56          57          58          59          60
       FREQUENCY:      3704.05     3712.80     3736.28     3777.40     3780.01  
        SYMMETRY:         A           A           A           A           A   
    REDUCED MASS:      1.09133     1.10022     1.10603     1.11642     1.11674
    IR INTENSITY:      0.55032     0.10234     0.06835     0.00320     0.01483

  1   C            X  0.00056205 -0.00014652 -0.00000502 -0.00268594 -0.00066220
                   Y -0.00052133  0.00199794 -0.00042383 -0.08688877 -0.03145120
                   Z -0.00046726 -0.00003772 -0.00002841 -0.01596190 -0.00622541
  2   C            X -0.00258981 -0.00407415  0.00002699 -0.00173792 -0.00223968
                   Y -0.00481192 -0.00767530  0.00006069 -0.00162683 -0.00486941
                   Z  0.00024954  0.00017541  0.00001561  0.00074107 -0.00036345
  3   C            X  0.00000753  0.00076021 -0.00008295  0.02022350 -0.05639426
                   Y  0.00055558  0.00136483 -0.00031150  0.02074443 -0.05620974
                   Z -0.00020429 -0.00101284  0.00009901 -0.01379664  0.03838348
  4   C            X -0.00535935 -0.01717938  0.00154175  0.00007100 -0.00020603
                   Y -0.00106011 -0.00194422  0.00037320 -0.00010509  0.00001841
                   Z  0.00758683  0.02291862 -0.00192813  0.00000308  0.00087366
  5   C            X -0.00159931 -0.01098755  0.00077407 -0.00015069 -0.00007301
                   Y -0.01511791 -0.06908851  0.00471026 -0.00038271 -0.00074049
                   Z  0.00310266  0.01979371 -0.00133816  0.00019469  0.00023558
  6   C            X -0.00801808  0.02189691 -0.00208821  0.00067015  0.00065709
                   Y  0.01329396 -0.02287250  0.00470992 -0.00025550 -0.00045440
                   Z  0.00539239 -0.01715562  0.00196106 -0.00019086 -0.00018752
  7   C            X -0.04926479  0.00406269 -0.03473958  0.00031940  0.00024733
                   Y -0.01026307  0.00252705  0.00015531  0.00006788 -0.00002966
                   Z  0.04578370 -0.00315327  0.03488044 -0.00064256 -0.00042582
  8   C            X  0.01864721 -0.00413530 -0.02510675 -0.00009174 -0.00010542
                   Y  0.03657875 -0.00993515 -0.07034056 -0.00004479  0.00014190
                   Z -0.00383139  0.00016221 -0.00288706 -0.00005610  0.00003038
  9   C            X -0.00107304  0.00050821  0.00173089 -0.00001662 -0.00010324
                   Y -0.00080768  0.00107730  0.00030953  0.00000173  0.00007392
                   Z  0.00077837 -0.00005164 -0.00162734  0.00009859 -0.00015777
 10   O            X  0.00010400 -0.00000531 -0.00021436  0.00001441 -0.00002177
                   Y  0.00017691 -0.00018029  0.00009726 -0.00000487  0.00001615
                   Z -0.00002903 -0.00006397  0.00026104 -0.00000583 -0.00001355
 11   H            X -0.00190493  0.00262203 -0.00042177 -0.14043414 -0.05088721
                   Y  0.00555655 -0.00778812  0.00190747  0.46256855  0.16868310
                   Z  0.00459090 -0.00632984  0.00155932  0.39589877  0.14396755
 12   H            X  0.00009688 -0.00345001  0.00068426  0.17924096  0.06452829
                   Y -0.00090930 -0.01350218  0.00369900  0.56153112  0.20103588
                   Z  0.00066419  0.00461643 -0.00142818 -0.21028403 -0.07520189
 13   H            X  0.02636821  0.04187724 -0.00009620  0.01494495  0.02761018
                   Y  0.05547137  0.08808551 -0.00050526  0.02383196  0.05775722
                   Z -0.00377780 -0.00619124  0.00002665 -0.00384234 -0.00148135
 14   H            X -0.00141594 -0.00293778  0.00095870 -0.04344876  0.11881862
                   Y -0.00518084 -0.01306377  0.00327816 -0.21494489  0.58516550
                   Z  0.00120849  0.00331500 -0.00052642  0.04108502 -0.11089918
 15   H            X  0.00007223 -0.00780436  0.00052530 -0.19636944  0.54209589
                   Y  0.00011692 -0.00126220  0.00002663 -0.03016311  0.08413924
                   Z  0.00007525  0.00532636 -0.00034142  0.12048718 -0.33217218
 16   H            X  0.05463101  0.16346408 -0.01240840 -0.00108918  0.00683538
                   Y  0.02130521  0.06137587 -0.00465817 -0.00033714  0.00271105
                   Z -0.08204541 -0.24453383  0.01876324  0.00185296 -0.01131545
 17   H            X  0.02977108  0.13860619 -0.00842048  0.00090073  0.00149596
                   Y  0.16833897  0.76048998 -0.04855891  0.00426945  0.00815128
                   Z -0.04302710 -0.19663360  0.01254675 -0.00118301 -0.00198042
 18   H            X  0.10667761 -0.22648068  0.03105442 -0.00748305 -0.00571204
                   Y -0.13018314  0.26904628 -0.03877878  0.00831432  0.00668718
                   Z -0.06816182  0.14657733 -0.02042522  0.00404218  0.00336706
 19   H            X  0.55844742 -0.04493461  0.36315168 -0.00485990 -0.00329921
                   Y  0.11537097 -0.01028080  0.07295893 -0.00062587 -0.00046145
                   Z -0.51939414  0.04109587 -0.33817206  0.00438613  0.00285886
 20   H            X -0.19467930  0.04979587  0.31836081  0.00070215 -0.00007318
                   Y -0.44518662  0.11460197  0.73251020  0.00112748 -0.00059082
                   Z  0.01508196 -0.00387803 -0.02319392  0.00021841  0.00011105

 TRANS. SAYVETZ    X  0.00000009  0.00000089 -0.00000046 -0.00000007 -0.00000005
                   Y  0.00000030 -0.00000064  0.00000003  0.00000006  0.00000007
                   Z -0.00000015 -0.00000058  0.00000006  0.00000006 -0.00000004
               TOTAL  0.00000035  0.00000124  0.00000046  0.00000010  0.00000010

   ROT. SAYVETZ    X  0.00000132  0.00000728 -0.00000380 -0.00002034  0.00001046
                   Y -0.00002713 -0.00000124 -0.00000960 -0.00001628  0.00000817
                   Z  0.00000412 -0.00001485  0.00000097  0.00000751 -0.00000172
               TOTAL  0.00002747  0.00001659  0.00001037  0.00002711  0.00001339

 REFERENCE ON SAYVETZ CONDITIONS - A. SAYVETZ, J.CHEM.PHYS., 7, 383-389(1939).

 NOTE - THE MODES J,K ARE ORTHONORMALIZED ACCORDING TO
 SUM ON I   M(I) * (X(I,J)*X(I,K) + Y(I,J)*Y(I,K) + Z(I,J)*Z(I,K)) = DELTA(J,K)

  MODE FREQ(CM**-1)  SYMMETRY  RED. MASS  IR INTENS.
     1    1060.365    A        9.324691    0.064339
     2       0.099    A        6.710959    0.000004
     3       0.072    A        6.648814    0.000022
     4       0.006    A        6.707260    0.000000
     5       1.354    A        4.792556    0.013593
     6       5.059    A        5.005029    0.004651
     7       6.265    A        4.596931    0.010214
     8     104.130    A        4.137952    0.029774
     9     203.674    A        3.551379    0.016624
    10     265.247    A        4.167132    0.030701
    11     381.412    A        5.276985    0.035423
    12     437.612    A        2.307317    0.075436
    13     465.616    A        3.414026    0.109571
    14     493.042    A        3.992215    0.077132
    15     506.439    A        4.789800    0.104998
    16     552.687    A        1.961647    0.248742
    17     575.844    A        2.545758    0.264900
    18     610.978    A        4.901313    0.016010
    19     677.216    A        5.711309    0.076632
    20     840.260    A        3.287478    0.033010
    21     851.562    A        4.185970    0.032903
    22     926.857    A        1.667082    2.621595
    23     938.110    A        1.761286    0.121227
    24     964.341    A        1.772482    0.902813
    25    1004.118    A        1.456940    0.150422
    26    1040.445    A        1.586992    0.061891
    27    1092.367    A        1.590189    0.228086
    28    1119.735    A        2.732669    0.001836
    29    1166.737    A        2.141532    0.057051
    30    1209.133    A        1.282450    0.003080
    31    1214.218    A        1.508097    0.090261
    32    1240.834    A        1.141097    0.082517
    33    1270.216    A        1.287365    0.408587
    34    1301.612    A        1.134612    0.247634
    35    1318.496    A        1.219222    0.093699
    36    1341.283    A        1.231508    0.051314
    37    1365.533    A        1.156041    0.010767
    38    1386.068    A        1.275970    0.048815
    39    1418.708    A        1.831275    0.674005
    40    1471.057    A        1.323610    0.088156
    41    1488.626    A        1.670940    0.001691
    42    1599.389    A        1.598211    0.164865
    43    1637.161    A        1.712708    0.166620
    44    1668.014    A        1.524681    0.029339
    45    1718.728    A        2.486350    0.476549
    46    1758.373    A        1.912215    0.035435
    47    1813.503    A        1.256192    0.224298
    48    1856.577    A        2.349653    0.040072
    49    2009.744    A        7.078383    0.062090
    50    2080.652    A       10.639100    1.818301
    51    3630.078    A        1.062666    0.098867
    52    3634.318    A        1.064621    0.072456
    53    3686.086    A        1.091014    0.193418
    54    3693.056    A        1.094113    0.045475
    55    3695.663    A        1.095901    0.141575
    56    3704.053    A        1.091326    0.550320
    57    3712.802    A        1.100222    0.102337
    58    3736.281    A        1.106027    0.068347
    59    3777.403    A        1.116417    0.003200
    60    3780.007    A        1.116742    0.014829

     -------------------------------
     THERMOCHEMISTRY AT T=  298.15 K
     -------------------------------

 USING IDEAL GAS, RIGID ROTOR, HARMONIC NORMAL MODE APPROXIMATIONS.
 P=  1.01325E+05 PASCAL.
 ALL FREQUENCIES ARE SCALED BY   1.00000
 THE MOMENTS OF INERTIA ARE (IN AMU*BOHR**2)
            852.46068          1312.32353          1651.70355
 THE ROTATIONAL SYMMETRY NUMBER IS  1.0
 THE ROTATIONAL CONSTANTS ARE (IN GHZ)
      2.11516     1.37397     1.09165
   1 IMAGINARY FREQUENCY VIBRATION(S) IS(ARE) EXCLUDED
     FROM THE FOLLOWING THERMOCHEMICAL ANALYSIS.
      8 -     60 VIBRATIONAL MODES ARE USED IN THERMOCHEMISTRY.
 THE HARMONIC ZERO POINT ENERGY IS (SCALED BY   1.000)
        0.192360 HARTREE/MOLECULE    42218.050178 CM**-1/MOLECULE 
      120.707584 KCAL/MOL              505.040531 KJ/MOL

               Q               LN Q
 ELEC.     1.00000E+00       0.000000
 TRANS.    6.10192E+07      17.926699
 ROT.      4.86592E+05      13.095182
 VIB.      1.44464E+01       2.670445
 TOT.      4.28935E+14      33.692326

              E         H         G         CV        CP        S
           KJ/MOL    KJ/MOL    KJ/MOL   J/MOL-K   J/MOL-K   J/MOL-K
 ELEC.      0.000     0.000     0.000     0.000     0.000     0.000
 TRANS.     3.718     6.197   -44.439    12.472    20.786   169.836
 ROT.       3.718     3.718   -32.462    12.472    12.472   121.350
 VIB.     516.151   516.151   498.421    93.000    93.000    59.469
 TOTAL    523.588   526.067   421.519   117.943   126.257   350.655
 VIB. THERMAL CORRECTION E(T)-E(0) = H(T)-H(0) =     11110.717 J/MOL

              E         H         G         CV        CP        S
         KCAL/MOL  KCAL/MOL  KCAL/MOL CAL/MOL-K CAL/MOL-K CAL/MOL-K
 ELEC.      0.000     0.000     0.000     0.000     0.000     0.000
 TRANS.     0.889     1.481   -10.621     2.981     4.968    40.592
 ROT.       0.889     0.889    -7.759     2.981     2.981    29.003
 VIB.     123.363   123.363   119.125    22.227    22.227    14.213
 TOTAL    125.141   125.733   100.746    28.189    30.176    83.809
 VIB. THERMAL CORRECTION E(T)-E(0) = H(T)-H(0) =      2655.525 CAL/MOL
 ......END OF NORMAL COORDINATE ANALYSIS......
 STEP CPU TIME =     0.01 TOTAL CPU TIME =         69.5 (      1.2 MIN)
 TOTAL WALL CLOCK TIME=         69.7 SECONDS, CPU UTILIZATION IS    99.78%
               580000  WORDS OF DYNAMIC MEMORY USED
 EXECUTION OF GAMESS TERMINATED NORMALLY Fri Nov 12 20:36:27 2021
 DDI: 263640 bytes (0.3 MB / 0 MWords) used by master data server.

 ----------------------------------------
 CPU timing information for all processes
 ========================================
 0: 68.674 + 0.882 = 69.557
 ----------------------------------------
 ddikick.x: exited gracefully.
----- accounting info -----
Files used on the master node chemcompute-node-0.novalocal were:
-rw-r--r--. 1 chemcomp chemcomp     1517 Nov 12 20:35 /scratch/305535/341394.F05
-rw-rw-r--. 1 chemcomp chemcomp 18001600 Nov 12 20:35 /scratch/305535/341394.F08
-rw-rw-r--. 1 chemcomp chemcomp 70451200 Nov 12 20:36 /scratch/305535/341394.F10
-rw-rw-r--. 1 chemcomp chemcomp   878880 Nov 12 20:36 /scratch/305535/341394.F18
Fri Nov 12 20:36:31 UTC 2021
0.125u 0.122s 1:13.30 0.3%	0+0k 8+216io 0pf+0w
Finishing Up...
Looking for IR data...
Looking for Raman data...
vibramans not found
Looking for thermodynamics data...
Looking for UV-Vis data...
305535
