----- GAMESS execution script 'rungms' -----
This job is running on host chemcompute-node-0.novalocal
under operating system Linux at Fri Nov 12 21:25:17 UTC 2021
SLURM has assigned the following compute nodes to this run:
chemcompute-node-0
Available scratch disk space (Kbyte units) at beginning of the job is
Filesystem     1K-blocks     Used Available Use% Mounted on
/dev/sda1       62903276 16925924  45977352  27% /
GAMESS temporary binary files will be written to /scratch/305555
GAMESS supplementary output files will be written to /data/slurm/341416
Copying input file 341416.inp to your run's scratch directory...
The generated host list is
chemcompute-node-0.novalocal

 Distributed Data Interface kickoff program.
 Initiating 1 compute processes on 1 nodes to run the following command:
 /data/gamess-2019R1-ddi/gamess.00.x 341416 

          ******************************************************
          *         GAMESS VERSION = 30 JUN 2019 (R1)          *
          *             FROM IOWA STATE UNIVERSITY             *
          * M.W.SCHMIDT, K.K.BALDRIDGE, J.A.BOATZ, S.T.ELBERT, *
          *   M.S.GORDON, J.H.JENSEN, S.KOSEKI, N.MATSUNAGA,   *
          *          K.A.NGUYEN, S.J.SU, T.L.WINDUS,           *
          *       TOGETHER WITH M.DUPUIS, J.A.MONTGOMERY       *
          *         J.COMPUT.CHEM.  14, 1347-1363(1993)        *
          **************** 64 BIT LINUX VERSION ****************

  SINCE 1993, STUDENTS AND POSTDOCS WORKING AT IOWA STATE UNIVERSITY
  AND ALSO IN THEIR VARIOUS JOBS AFTER LEAVING ISU HAVE MADE IMPORTANT
  CONTRIBUTIONS TO THE CODE:
     IVANA ADAMOVIC, CHRISTINE AIKENS, YURI ALEXEEV, POOJA ARORA,
     ANDREY ASADCHEV, ROB BELL, PRADIPTA BANDYOPADHYAY, JONATHAN BENTZ,
     COLLEEN BERTONI, BRETT BODE, KURT BRORSEN, CALEB CARLIN, GALINA CHABAN,
     WEI CHEN, CHEOL HO CHOI, PAUL DAY, ALBERT DEFUSCO, NUWAN DESILVA,
     TIM DUDLEY, DMITRI FEDOROV, ALEX FINDLATER, GRAHAM FLETCHER, 
     MARK FREITAG, KURT GLAESEMANN, ANASTASIA GUNINA,
     DAN KEMP, GRANT MERRILL, NORIYUKI MINEZAWA, JONATHAN MULLIN,
     TAKESHI NAGATA, SEAN NEDD, HEATHER NETZLOFF, BOSILJKA NJEGIC, RYAN OLSON,
     MIKE PAK, BUU PHAM,
     SPENCER PRUITT, LUKE ROSKOP, JIM SHOEMAKER, LYUDMILA SLIPCHENKO,
     TONY SMITH, SAROM SOK LEANG, JIE SONG, TETSUYA TAKETSUGU, SIMON WEBB,
     PENG XU, SOOHAENG YOO, FEDERICO ZAHARIEV

  ADDITIONAL CODE HAS BEEN PROVIDED BY COLLABORATORS IN OTHER GROUPS:
     IOWA STATE UNIVERSITY:
          JOE IVANIC, AARON WEST, LAIMUTIS BYTAUTAS, KLAUS RUEDENBERG
     UNIVERSITY OF TOKYO: KIMIHIKO HIRAO, TAKAHITO NAKAJIMA,
          TAKAO TSUNEDA, MUNEAKI KAMIYA, SUSUMU YANAGISAWA,
          KIYOSHI YAGI, MAHITO CHIBA, SEIKEN TOKURA, NAOAKI KAWAKAMI
     UNIVERSITY OF AARHUS: FRANK JENSEN
     UNIVERSITY OF IOWA: VISVALDAS KAIRYS, HUI LI
     NATIONAL INST. OF STANDARDS AND TECHNOLOGY: WALT STEVENS, DAVID GARMER
     UNIVERSITY OF PISA: BENEDETTA MENNUCCI, JACOPO TOMASI
     UNIVERSITY OF MEMPHIS: HENRY KURTZ, PRAKASHAN KORAMBATH
     UNIVERSITY OF ALBERTA: TOBY ZENG, MARIUSZ KLOBUKOWSKI
     UNIVERSITY OF NEW ENGLAND: MARK SPACKMAN
     MIE UNIVERSITY: HIROAKI UMEDA
     NAT. INST. OF ADVANCED INDUSTRIAL SCIENCE AND TECHNOLOGY: KAZUO KITAURA
     MICHIGAN STATE UNIVERSITY:
          KAROL KOWALSKI, MARTA WLOCH, JEFFREY GOUR, JESSE LUTZ,
          WEI LI, JUN SHEN, J. EMILIANO DEUSTUA, PIOTR PIECUCH
     UNIVERSITY OF MINNESOTA:
          YINAN SHU
     UNIVERSITY OF SILESIA: MONIKA MUSIAL, STANISLAW KUCHARSKI
     FACULTES UNIVERSITAIRES NOTRE-DAME DE LA PAIX:
          OLIVIER QUINET, BENOIT CHAMPAGNE
     UNIVERSITY OF CALIFORNIA - SANTA BARBARA: BERNARD KIRTMAN
     INSTITUTE FOR MOLECULAR SCIENCE:
          KAZUYA ISHIMURA, MICHIO KATOUDA, AND SHIGERU NAGASE
     UNIVERSITY OF NOTRE DAME: ANNA POMOGAEVA, DAN CHIPMAN
     KYUSHU UNIVERSITY:
          HARUYUKI NAKANO,
          FENG LONG GU, JACEK KORCHOWIEC, MARCIN MAKOWSKI, AND YURIKO AOKI,
          HIROTOSHI MORI AND EISAKU MIYOSHI
     PENNSYLVANIA STATE UNIVERSITY:
          TZVETELIN IORDANOV, CHET SWALINA, JONATHAN SKONE,
          SHARON HAMMES-SCHIFFER
     WASEDA UNIVERSITY:
          MASATO KOBAYASHI, TOMOKO AKAMA, TSUGUKI TOUMA,
          TAKESHI YOSHIKAWA, YASUHIRO IKABATA, JUNJI SEINO,
          YUYA NAKAJIMA, HIROMI NAKAI
     NANJING UNIVERSITY: SHUHUA LI
     UNIVERSITY OF NEBRASKA:
          PEIFENG SU, DEJUN SI, NANDUN THELLAMUREGE, YALI WANG, HUI LI
     UNIVERSITY OF ZURICH: ROBERTO PEVERATI, KIM BALDRIDGE
     N. COPERNICUS UNIVERSITY AND JACKSON STATE UNIVERSITY:
          MARIA BARYSZ
     UNIVERSITY OF COPENHAGEN: Jimmy Kromann, CASPER STEINMANN
     TOKYO INSTITUTE OF TECHNOLOGY: HIROYA NAKATA
     NAGOYA UNIVERSITY: YOSHIO NISHIMOTO, STEPHAN IRLE
     MOSCOW STATE UNIVERSITY: VLADIMIR MIRONOV
     A.N.NESMEYANOV INSTITUTE OF ORGANOELEMENT COMPOUNDS OF RUSSIAN ACADEMY OF SCIENCES:
          IGOR S. GERASIMOV

 EXECUTION OF GAMESS BEGUN Fri Nov 12 21:25:18 2021

            ECHO OF THE FIRST FEW INPUT CARDS -
 INPUT CARD>!File created by the GAMESS Input Deck Generator Plugin for Avogadro            
 INPUT CARD> $BASIS GBASIS=STO NGAUSS=3 $END                                                
 INPUT CARD> $CONTRL SCFTYP=RHF RUNTYP=IRC $END                                             
 INPUT CARD> $STATPT HESS=READ ihrep=5 $END                                                 
 INPUT CARD> $irc npoint=100 saddle=.t. tsengy=.t. forwrd=.f. opttol=0.0005 stride=0.1 $end 
 INPUT CARD>                                                                                
 INPUT CARD> $DATA                                                                          
 INPUT CARD>Title                                                                           
 INPUT CARD>C1                                                                              
 INPUT CARD>C     6.0     2.08227444    -1.16107225    -1.87052178                          
 INPUT CARD>C     6.0     0.84151685    -1.23566854    -1.21336114                          
 INPUT CARD>C     6.0     0.56351393    -0.32213175    -0.18300547                          
 INPUT CARD>C     6.0     1.92173910    -0.56043291     1.17038381                          
 INPUT CARD>C     6.0     2.78667784    -1.55988324     0.69283348                          
 INPUT CARD>C     6.0     3.45312667    -1.27383375    -0.51385242                          
 INPUT CARD>C     6.0     4.03248787     0.12113438    -0.59379905                          
 INPUT CARD>C     6.0     3.61009645     1.09567618     0.18432453                          
 INPUT CARD>C     6.0     2.50346684     0.86504096     1.18869996                          
 INPUT CARD>O     8.0     2.09883523     1.73224294     1.95012224                          
 INPUT CARD>H     1.0     2.32100511    -1.96068299    -2.56463599                          
 INPUT CARD>H     1.0     2.38053036    -0.19068792    -2.24986148                          
 INPUT CARD>H     1.0     0.38181117    -2.21450734    -1.13920081                          
 INPUT CARD>H     1.0     0.75900656     0.72326982    -0.39286402                          
 INPUT CARD>H     1.0    -0.35839403    -0.46015379     0.37226164                          
 INPUT CARD>H     1.0     1.34357142    -0.78583640     2.06233120                          
 INPUT CARD>H     1.0     2.59449768    -2.59304023     0.95515484                          
 INPUT CARD>H     1.0     4.10607147    -2.04222798    -0.91767365                          
 INPUT CARD>H     1.0     4.81738281     0.28437096    -1.32434464                          
 INPUT CARD>H     1.0     4.04134274     2.08756876     0.15309787                          
 INPUT CARD> $END                                                                           
 INPUT CARD>                                                                                
 INPUT CARD> $HESS                                                                          
 INPUT CARD>ENERGY IS     -416.0940647114 E(NUC) IS      511.4290929312                     
 INPUT CARD> 1  1 4.04425859E-01 7.59492859E-02-3.97702451E-01-2.57987370E-01-1.07003114E-01
 INPUT CARD> 1  2 7.84130671E-02 5.77009918E-02 5.80419553E-02 1.65767042E-01-1.37510875E-01
 INPUT CARD> 1  3 7.68646302E-02-4.82937536E-02 9.04803897E-02-3.87253669E-02-1.49243071E-01
 INPUT CARD> 1  4 4.99588289E-02-1.50986581E-02 2.27994948E-01-2.72661816E-02-2.08173459E-02
 INPUT CARD> 1  5-2.52485989E-02-6.70951006E-03 8.15633073E-03 2.41480041E-03 7.84069889E-03
 INPUT CARD> 1  6-3.60768494E-03 1.02889229E-02-1.17559282E-03 3.37482435E-03-1.45541577E-03
 INPUT CARD> 1  7-7.62921659E-02 5.67603504E-02 7.86735904E-02-6.80241716E-02-9.95160249E-02
 INPUT CARD> 1  8 7.95852172E-02-9.54238688E-03 8.32431198E-03 7.48937937E-03-1.55159259E-02
 INPUT CARD> 1  9 1.11953357E-03-1.30573158E-02-1.63809844E-03 1.40540665E-03-2.67307761E-03
 INPUT CARD> 1 10 7.03839009E-03 4.72370316E-04 3.87989292E-03-3.12497727E-04-2.19621266E-03
 INPUT CARD> 1 11 1.41201689E-03-1.92892692E-02-2.47300270E-03-2.14115293E-02 1.16545742E-03
 INPUT CARD> 1 12-2.89059205E-04 9.68427532E-04 2.64966951E-03-7.44143135E-04 2.20264514E-03
 INPUT CARD> 2  1 7.59492859E-02 8.80041507E-01 7.95243390E-02-3.24869989E-02-1.54518279E-01
 INPUT CARD> 2  2-5.22260572E-03 3.23294596E-02 9.56798359E-03-1.65141171E-02 7.49147801E-04
 INPUT CARD> 2  3-9.76640504E-05-2.86145107E-03 1.59443624E-03 1.20730395E-03 8.14618993E-03
 INPUT CARD> 2  4 7.02410618E-04-4.53099437E-02-5.33834749E-03-1.11144870E-02-2.69009954E-04
 INPUT CARD> 2  5-1.08669639E-02 1.91725673E-04-1.35829569E-03-9.40499257E-04-1.50536209E-03
    1000000 WORDS OF MEMORY AVAILABLE

     BASIS OPTIONS
     -------------
     GBASIS=STO          IGAUSS=       3      POLAR=NONE    
     NDFUNC=       0     NFFUNC=       0     DIFFSP=       F
     NPFUNC=       0      DIFFS=       F     BASNAM=        


     RUN TITLE
     ---------
 Title                                                                           

 THE POINT GROUP OF THE MOLECULE IS C1      
 THE ORDER OF THE PRINCIPAL AXIS IS     0

 ATOM      ATOMIC                      COORDINATES (BOHR)
           CHARGE         X                   Y                   Z
 C           6.0     3.9349281228       -2.1941084044       -3.5347736183
 C           6.0     1.5902362606       -2.3350749522       -2.2929200787
 C           6.0     1.0648869180       -0.6087407394       -0.3458301926
 C           6.0     3.6315603189       -1.0590646344        2.2117047014
 C           6.0     5.2660575337       -2.9477518964        1.3092654323
 C           6.0     6.5254632072       -2.4071967414       -0.9710402719
 C           6.0     7.6202971231        0.2289107859       -1.1221174963
 C           6.0     6.8220930797        2.0705277515        0.3483228545
 C           6.0     4.7308663469        1.6346903826        2.2463172060
 O           8.0     3.9662234781        3.2734645008        3.6851966762
 H           1.0     4.3860636740       -3.7051535999       -4.8464592793
 H           1.0     4.4985500859       -0.3603479180       -4.2516217075
 H           1.0     0.7215184904       -4.1848120704       -2.1527773759
 H           1.0     1.4343144213        1.3667817750       -0.7424053482
 H           1.0    -0.6772665123       -0.8695645753        0.7034724953
 H           1.0     2.5389818287       -1.4850154672        3.8972408639
 H           1.0     4.9028896910       -4.9001355098        1.8049809234
 H           1.0     7.7593499643       -3.8592512867       -1.7341517447
 H           1.0     9.1035334889        0.5373831933       -2.5026484829
 H           1.0     7.6370304011        3.9449329369        0.2893130236

          INTERNUCLEAR DISTANCES (ANGS.)
          ------------------------------

                1 C          2 C          3 C          4 C          5 C     

   1 C       0.0000000    1.4060242 *  2.4203648 *  3.1038115    2.6881266 *
   2 C       1.4060242 *  0.0000000    1.4048017 *  2.7027881 *  2.7426893 *
   3 C       2.4203648 *  1.4048017 *  0.0000000    1.9321557 *  2.6910185 *
   4 C       3.1038115    2.7027881 *  1.9321557 *  0.0000000    1.4053734 *
   5 C       2.6881266 *  2.7426893 *  2.6910185 *  1.4053734 *  0.0000000  
   6 C       1.9319686 *  2.7039369 *  3.0602383    2.3855273 *  1.4078598 *
   7 C       2.6603397 *  3.5223667    3.5212237    2.8341022 *  2.4562748 *
   8 C       3.4131433    3.8799132    3.3803514    2.5623350 *  2.8264103 *
   9 C       3.6934233    3.5979099    2.6560068 *  1.5397137 *  2.4912546 *
  10 O       4.7925847    4.5163010    3.3358508    2.4281099 *  3.5905428  
  11 H       1.0854327 *  2.1308391 *  3.3831626    4.0088011    3.3149056  
  12 H       1.0837440 *  2.1295258 *  2.7551261 *  3.4706309    3.2709487  
  13 H       2.1298195 *  1.0839532 *  2.1280063 *  3.2313343    3.0932614  
  14 H       2.7359195 *  2.1254324 *  1.0840306 *  2.3331488 *  3.2408298  
  15 H       3.3879532    2.1343404 *  1.0850281 *  2.4178631 *  3.3471851  
  16 H       4.0191811    3.3443337    2.4217862 *  1.0865794 *  2.1347667 *
  17 H       3.2089489    3.1012677    3.2522806    2.1518411 *  1.0831247 *
  18 H       2.4041858 *  3.3756905    4.0060183    3.3655621    2.1370983 *
  19 H       3.1414063    4.2579746    4.4458859    3.9143475    3.4050028  
  20 H       4.2996109    4.8114449    4.2443981    3.5411161    3.8947920  

                6 C          7 C          8 C          9 C         10 O     

   1 C       1.9319686 *  2.6603397 *  3.4131433    3.6934233    4.7925847  
   2 C       2.7039369 *  3.5223667    3.8799132    3.5979099    4.5163010  
   3 C       3.0602383    3.5212237    3.3803514    2.6560068 *  3.3358508  
   4 C       2.3855273 *  2.8341022 *  2.5623350 *  1.5397137 *  2.4281099 *
   5 C       1.4078598 *  2.4562748 *  2.8264103 *  2.4912546 *  3.5905428  
   6 C       0.0000000    1.5126093 *  2.4752107 *  2.8940151 *  4.1160386  
   7 C       1.5126093 *  0.0000000    1.3166710 *  2.4634539 *  3.5785778  
   8 C       2.4752107 *  1.3166710 *  0.0000000    1.5121480 *  2.4098069 *
   9 C       2.8940151 *  2.4634539 *  1.5121480 *  0.0000000    1.2229186 *
  10 O       4.1160386    3.5785778    2.4098069 *  1.2229186 *  0.0000000  
  11 H       2.4411420 *  3.3387625    4.3081170    4.7016528    5.8369601  
  12 H       2.3102803 *  2.3598177 *  3.0152656    3.5990807    4.6278373  
  13 H       3.2724465    4.3680803    4.8094553    4.4050156    5.2980115  
  14 H       3.3557926    3.3344598    2.9326689 *  2.3589373 *  2.8814497 *
  15 H       3.9968692    4.5333225    4.2667135    3.2577539    3.6516056  
  16 H       3.3652766    3.8868876    3.4934416    2.1986325 *  2.6312996 *
  17 H       2.1530285 *  3.4400317    3.9028514    3.4671538    4.4658388  
  18 H       1.0862036 *  2.1887088 *  3.3625636    3.9315854    5.1478035  
  19 H       2.2239816 *  1.0846212 *  2.0956715 *  3.4650798    4.4954385  
  20 H       3.4770458    2.1035203 *  1.0820348 *  2.2208350 *  2.6699978 *

               11 H         12 H         13 H         14 H         15 H     

   1 C       1.0854327 *  1.0837440 *  2.1298195 *  2.7359195 *  3.3879532  
   2 C       2.1308391 *  2.1295258 *  1.0839532 *  2.1254324 *  2.1343404 *
   3 C       3.3831626    2.7551261 *  2.1280063 *  1.0840306 *  1.0850281 *
   4 C       4.0088011    3.4706309    3.2313343    2.3331488 *  2.4178631 *
   5 C       3.3149056    3.2709487    3.0932614    3.2408298    3.3471851  
   6 C       2.4411420 *  2.3102803 *  3.2724465    3.3557926    3.9968692  
   7 C       3.3387625    2.3598177 *  4.3680803    3.3344598    4.5333225  
   8 C       4.3081170    3.0152656    4.8094553    2.9326689 *  4.2667135  
   9 C       4.7016528    3.5990807    4.4050156    2.3589373 *  3.2577539  
  10 O       5.8369601    4.6278373    5.2980115    2.8814497 *  3.6516056  
  11 H       0.0000000    1.7987520 *  2.4200755 *  3.7894638    4.2492511  
  12 H       1.7987520 *  0.0000000    3.0535701    2.6292770 *  3.8012956  
  13 H       2.4200755 *  3.0535701    0.0000000    3.0544770    2.4310859 *
  14 H       3.7894638    2.6292770 *  3.0544770    0.0000000    1.7984696 *
  15 H       4.2492511    3.8012956    2.4310859 *  1.7984696 *  0.0000000  
  16 H       4.8728294    4.4748733    3.6353666    2.9405954 *  2.4205559 *
  17 H       3.5865863    4.0111355    3.0701131    4.0229460    3.6889753  
  18 H       2.4301433 *  2.8601429 *  3.7348185    4.3733565    4.9090064  
  19 H       3.5791747    2.6496249 *  5.0944054    4.1869686    5.4974045  
  20 H       5.1704914    3.7044520    5.7939681    3.5962643    5.0888709  

               16 H         17 H         18 H         19 H         20 H     

   1 C       4.0191811    3.2089489    2.4041858 *  3.1414063    4.2996109  
   2 C       3.3443337    3.1012677    3.3756905    4.2579746    4.8114449  
   3 C       2.4217862 *  3.2522806    4.0060183    4.4458859    4.2443981  
   4 C       1.0865794 *  2.1518411 *  3.3655621    3.9143475    3.5411161  
   5 C       2.1347667 *  1.0831247 *  2.1370983 *  3.4050028    3.8947920  
   6 C       3.3652766    2.1530285 *  1.0862036 *  2.2239816 *  3.4770458  
   7 C       3.8868876    3.4400317    2.1887088 *  1.0846212 *  2.1035203 *
   8 C       3.4934416    3.9028514    3.3625636    2.0956715 *  1.0820348 *
   9 C       2.1986325 *  3.4671538    3.9315854    3.4650798    2.2208350 *
  10 O       2.6312996 *  4.4658388    5.1478035    4.4954385    2.6699978 *
  11 H       4.8728294    3.5865863    2.4301433 *  3.5791747    5.1704914  
  12 H       4.4748733    4.0111355    2.8601429 *  2.6496249 *  3.7044520  
  13 H       3.6353666    3.0701131    3.7348185    5.0944054    5.7939681  
  14 H       2.9405954 *  4.0229460    4.3733565    4.1869686    3.5962643  
  15 H       2.4205559 *  3.6889753    4.9090064    5.4974045    5.0888709  
  16 H       0.0000000    2.4610245 *  4.2532758    4.9681267    4.3794519  
  17 H       2.4610245 *  0.0000000    2.4689544 *  4.2914836    4.9643486  
  18 H       4.2532758    2.4689544 *  0.0000000    2.4666592 *  4.2668446  
  19 H       4.9681267    4.2914836    2.4666592 *  0.0000000    2.4569487 *
  20 H       4.3794519    4.9643486    4.2668446    2.4569487 *  0.0000000  

  * ... LESS THAN  3.000


     ATOMIC BASIS SET
     ----------------
 THE CONTRACTED PRIMITIVE FUNCTIONS HAVE BEEN UNNORMALIZED
 THE CONTRACTED BASIS FUNCTIONS ARE NOW NORMALIZED TO UNITY

  SHELL TYPE  PRIMITIVE        EXPONENT          CONTRACTION COEFFICIENT(S)

 C         

      1   S       1            71.6168373    0.154328967295
      1   S       2            13.0450963    0.535328142282
      1   S       3             3.5305122    0.444634542185

      2   L       4             2.9412494   -0.099967229187    0.155916274999
      2   L       5             0.6834831    0.399512826089    0.607683718598
      2   L       6             0.2222899    0.700115468880    0.391957393099

 C         

      3   S       7            71.6168373    0.154328967295
      3   S       8            13.0450963    0.535328142282
      3   S       9             3.5305122    0.444634542185

      4   L      10             2.9412494   -0.099967229187    0.155916274999
      4   L      11             0.6834831    0.399512826089    0.607683718598
      4   L      12             0.2222899    0.700115468880    0.391957393099

 C         

      5   S      13            71.6168373    0.154328967295
      5   S      14            13.0450963    0.535328142282
      5   S      15             3.5305122    0.444634542185

      6   L      16             2.9412494   -0.099967229187    0.155916274999
      6   L      17             0.6834831    0.399512826089    0.607683718598
      6   L      18             0.2222899    0.700115468880    0.391957393099

 C         

      7   S      19            71.6168373    0.154328967295
      7   S      20            13.0450963    0.535328142282
      7   S      21             3.5305122    0.444634542185

      8   L      22             2.9412494   -0.099967229187    0.155916274999
      8   L      23             0.6834831    0.399512826089    0.607683718598
      8   L      24             0.2222899    0.700115468880    0.391957393099

 C         

      9   S      25            71.6168373    0.154328967295
      9   S      26            13.0450963    0.535328142282
      9   S      27             3.5305122    0.444634542185

     10   L      28             2.9412494   -0.099967229187    0.155916274999
     10   L      29             0.6834831    0.399512826089    0.607683718598
     10   L      30             0.2222899    0.700115468880    0.391957393099

 C         

     11   S      31            71.6168373    0.154328967295
     11   S      32            13.0450963    0.535328142282
     11   S      33             3.5305122    0.444634542185

     12   L      34             2.9412494   -0.099967229187    0.155916274999
     12   L      35             0.6834831    0.399512826089    0.607683718598
     12   L      36             0.2222899    0.700115468880    0.391957393099

 C         

     13   S      37            71.6168373    0.154328967295
     13   S      38            13.0450963    0.535328142282
     13   S      39             3.5305122    0.444634542185

     14   L      40             2.9412494   -0.099967229187    0.155916274999
     14   L      41             0.6834831    0.399512826089    0.607683718598
     14   L      42             0.2222899    0.700115468880    0.391957393099

 C         

     15   S      43            71.6168373    0.154328967295
     15   S      44            13.0450963    0.535328142282
     15   S      45             3.5305122    0.444634542185

     16   L      46             2.9412494   -0.099967229187    0.155916274999
     16   L      47             0.6834831    0.399512826089    0.607683718598
     16   L      48             0.2222899    0.700115468880    0.391957393099

 C         

     17   S      49            71.6168373    0.154328967295
     17   S      50            13.0450963    0.535328142282
     17   S      51             3.5305122    0.444634542185

     18   L      52             2.9412494   -0.099967229187    0.155916274999
     18   L      53             0.6834831    0.399512826089    0.607683718598
     18   L      54             0.2222899    0.700115468880    0.391957393099

 O         

     19   S      55           130.7093214    0.154328967295
     19   S      56            23.8088661    0.535328142282
     19   S      57             6.4436083    0.444634542185

     20   L      58             5.0331513   -0.099967229187    0.155916274999
     20   L      59             1.1695961    0.399512826089    0.607683718598
     20   L      60             0.3803890    0.700115468880    0.391957393099

 H         

     21   S      61             3.4252509    0.154328967295
     21   S      62             0.6239137    0.535328142282
     21   S      63             0.1688554    0.444634542185

 H         

     22   S      64             3.4252509    0.154328967295
     22   S      65             0.6239137    0.535328142282
     22   S      66             0.1688554    0.444634542185

 H         

     23   S      67             3.4252509    0.154328967295
     23   S      68             0.6239137    0.535328142282
     23   S      69             0.1688554    0.444634542185

 H         

     24   S      70             3.4252509    0.154328967295
     24   S      71             0.6239137    0.535328142282
     24   S      72             0.1688554    0.444634542185

 H         

     25   S      73             3.4252509    0.154328967295
     25   S      74             0.6239137    0.535328142282
     25   S      75             0.1688554    0.444634542185

 H         

     26   S      76             3.4252509    0.154328967295
     26   S      77             0.6239137    0.535328142282
     26   S      78             0.1688554    0.444634542185

 H         

     27   S      79             3.4252509    0.154328967295
     27   S      80             0.6239137    0.535328142282
     27   S      81             0.1688554    0.444634542185

 H         

     28   S      82             3.4252509    0.154328967295
     28   S      83             0.6239137    0.535328142282
     28   S      84             0.1688554    0.444634542185

 H         

     29   S      85             3.4252509    0.154328967295
     29   S      86             0.6239137    0.535328142282
     29   S      87             0.1688554    0.444634542185

 H         

     30   S      88             3.4252509    0.154328967295
     30   S      89             0.6239137    0.535328142282
     30   S      90             0.1688554    0.444634542185

 TOTAL NUMBER OF BASIS SET SHELLS             =   30
 NUMBER OF CARTESIAN GAUSSIAN BASIS FUNCTIONS =   60
 NUMBER OF ELECTRONS                          =   72
 CHARGE OF MOLECULE                           =    0
 SPIN MULTIPLICITY                            =    1
 NUMBER OF OCCUPIED ORBITALS (ALPHA)          =   36
 NUMBER OF OCCUPIED ORBITALS (BETA )          =   36
 TOTAL NUMBER OF ATOMS                        =   20
 THE NUCLEAR REPULSION ENERGY IS      511.4290929312

     $CONTRL OPTIONS
     ---------------
 SCFTYP=RHF          RUNTYP=IRC          EXETYP=RUN     
 MPLEVL=       0     CITYP =NONE         CCTYP =NONE         VBTYP =NONE    
 DFTTYP=NONE         TDDFT =NONE    
 MULT  =       1     ICHARG=       0     NZVAR =       0     COORD =UNIQUE  
 PP    =NONE         RELWFN=NONE         LOCAL =NONE         NUMGRD=       F
 ISPHER=      -1     NOSYM =       0     MAXIT =      30     UNITS =ANGS    
 PLTORB=       F     MOLPLT=       F     AIMPAC=       F     FRIEND=        
 NPRINT=       7     IREST =       0     GEOM  =INPUT   
 NORMF =       0     NORMP =       0     ITOL  =      20     ICUT  =       9
 INTTYP=BEST         GRDTYP=BEST         QMTTOL= 1.0E-06

     $SYSTEM OPTIONS
     ---------------
  REPLICATED MEMORY=     1000000 WORDS (ON EVERY NODE).
 DISTRIBUTED MEMDDI=           0 MILLION WORDS IN AGGREGATE,
 MEMDDI DISTRIBUTED OVER   1 PROCESSORS IS           0 WORDS/PROCESSOR.
 TOTAL MEMORY REQUESTED ON EACH PROCESSOR=     1000000 WORDS.
 TIMLIM=      525600.00 MINUTES, OR     365.0 DAYS.
 PARALL= F  BALTYP=  DLB     KDIAG=    0  COREFL= F
 MXSEQ2=     300 MXSEQ3=     150  mem10=         0

          ----------------
          PROPERTIES INPUT
          ----------------

     MOMENTS            FIELD           POTENTIAL          DENSITY
 IEMOM =       1   IEFLD =       0   IEPOT =       0   IEDEN =       0
 WHERE =COMASS     WHERE =NUCLEI     WHERE =NUCLEI     WHERE =NUCLEI  
 OUTPUT=BOTH       OUTPUT=BOTH       OUTPUT=BOTH       OUTPUT=BOTH    
 IEMINT=       0   IEFINT=       0                     IEDINT=       0
                                                       MORB  =       0
          EXTRAPOLATION IN EFFECT
          SOSCF IN EFFECT
 ORBITAL PRINTING OPTION: NPREO=     1    60     2     1

     -------------------------------
     INTEGRAL TRANSFORMATION OPTIONS
     -------------------------------
     NWORD  =            0
     CUTOFF = 1.0E-09     MPTRAN =       0
     DIRTRF =       F     AOINTS =DUP     

          ----------------------
          INTEGRAL INPUT OPTIONS
          ----------------------
 NOPK  =       1 NORDER=       0 SCHWRZ=       T

     ------------------------------------------
     THE POINT GROUP IS C1 , NAXIS= 0, ORDER= 1
     ------------------------------------------

     DIMENSIONS OF THE SYMMETRY SUBSPACES ARE
 A   =   60

 ..... DONE SETTING UP THE RUN .....
 STEP CPU TIME =     0.04 TOTAL CPU TIME =          0.0 (      0.0 MIN)
 TOTAL WALL CLOCK TIME=          0.1 SECONDS, CPU UTILIZATION IS    66.67%

          -----------------------------
          INTRINSIC REACTION COORDINATE
          -----------------------------
          PACE   =GS2     
          STRIDE = 0.10000 BOHR*SQRT(AMU)
          NPOINT =     100
          NEXTPT =       0
          STOTAL =  0.0000 BOHR*SQRT(AMU)
          SAB    =  0.0000 BOHR*SQRT(AMU)
          NPRT   =       0
          NPUN   =       0

          SADDLE =       T
          TSENGY =       T
          FORWRD =       F
          EVIB   = 0.00050 HARTREE
          FREQ   =     0.0 CM**-1

          STABLZ =       F
          ELBOW  =  175.00 DEGREES
          DELTA  = 0.02500 BOHR

          READQB =       F
          EB     =        0.0000000000 HARTREES
          GBNORM =        0.0000000000 HARTREES/SQRT(AMU)-BOHR

          GCUT   = 0.0000500 HARTREES/SQRT(AMU)-BOHR
          RCUT   = 0.0005000 BOHR
          ACUT   =    5.00 DEGREES
          MXOPT  =      20
          IHUPD  =       2

 ATOMIC MASSES USED (IN AMU) ARE
     C             12.0000
     C             12.0000
     C             12.0000
     C             12.0000
     C             12.0000
     C             12.0000
     C             12.0000
     C             12.0000
     C             12.0000
     O             15.9949
     H              1.0078
     H              1.0078
     H              1.0078
     H              1.0078
     H              1.0078
     H              1.0078
     H              1.0078
     H              1.0078
     H              1.0078
     H              1.0078

 JUMP AWAY FROM SADDLE POINT WILL BE FOUND FROM THE INPUT HESSIAN MATRIX

 COMPUTING WAVEFUNCTION AT TRANSITION STATE...

          ********************
          1 ELECTRON INTEGRALS
          ********************
 ...... END OF ONE-ELECTRON INTEGRALS ......
 STEP CPU TIME =     0.02 TOTAL CPU TIME =          0.1 (      0.0 MIN)
 TOTAL WALL CLOCK TIME=          0.1 SECONDS, CPU UTILIZATION IS    75.00%

          -------------
          GUESS OPTIONS
          -------------
          GUESS =HUCKEL            NORB  =       0          NORDER=       0
          MIX   =       F          PRTMO =       F          PUNMO =       F
          TOLZ  = 1.0E-08          TOLE  = 1.0E-05
          SYMDEN=       F          PURIFY=       F

 INITIAL GUESS ORBITALS GENERATED BY HUCKEL   ROUTINE.
 HUCKEL GUESS REQUIRES     53820 WORDS.

 SYMMETRIES FOR INITIAL GUESS ORBITALS FOLLOW.   BOTH SET(S).
    36 ORBITALS ARE OCCUPIED (   10 CORE ORBITALS).
    11=A       12=A       13=A       14=A       15=A       16=A       17=A   
    18=A       19=A       20=A       21=A       22=A       23=A       24=A   
    25=A       26=A       27=A       28=A       29=A       30=A       31=A   
    32=A       33=A       34=A       35=A       36=A       37=A       38=A   
    39=A       40=A       41=A       42=A       43=A       44=A       45=A   
    46=A   
 ...... END OF INITIAL ORBITAL SELECTION ......
 STEP CPU TIME =     0.01 TOTAL CPU TIME =          0.1 (      0.0 MIN)
 TOTAL WALL CLOCK TIME=          0.1 SECONDS, CPU UTILIZATION IS    70.00%

                    ----------------------
                    AO INTEGRAL TECHNOLOGY
                    ----------------------
     S,P,L SHELL ROTATED AXIS INTEGRALS, REPROGRAMMED BY
        KAZUYA ISHIMURA (IMS) AND JOSE SIERRA (SYNSTAR).
     S,P,D,L SHELL ROTATED AXIS INTEGRALS PROGRAMMED BY
        KAZUYA ISHIMURA (INSTITUTE FOR MOLECULAR SCIENCE).
     S,P,D,F,G SHELL TO TOTAL QUARTET ANGULAR MOMENTUM SUM 5,
        ERIC PROGRAM BY GRAHAM FLETCHER (ELORET AND NASA ADVANCED
        SUPERCOMPUTING DIVISION, AMES RESEARCH CENTER).
     S,P,D,F,G,L SHELL GENERAL RYS QUADRATURE PROGRAMMED BY
        MICHEL DUPUIS (PACIFIC NORTHWEST NATIONAL LABORATORY).

          --------------------
          2 ELECTRON INTEGRALS
          --------------------

 THE -PK- OPTION IS OFF, THE INTEGRALS ARE NOT IN SUPERMATRIX FORM.
 STORING   15000 INTEGRALS/RECORD ON DISK, USING 12 BYTES/INTEGRAL.
 TWO ELECTRON INTEGRAL EVALUATION REQUIRES   89821 WORDS OF MEMORY.
 SCHWARZ INEQUALITY OVERHEAD:      1797 INTEGRALS, T=        0.01
 II,JST,KST,LST =  1  1  1  1 NREC =         1 INTLOC =    1
 II,JST,KST,LST =  2  1  1  1 NREC =         1 INTLOC =    2
 II,JST,KST,LST =  3  1  1  1 NREC =         1 INTLOC =   34
 II,JST,KST,LST =  4  1  1  1 NREC =         1 INTLOC =  144
 II,JST,KST,LST =  5  1  1  1 NREC =         1 INTLOC = 1366
 II,JST,KST,LST =  6  1  1  1 NREC =         1 INTLOC = 1962
 II,JST,KST,LST =  7  1  1  1 NREC =         1 INTLOC = 6863
 II,JST,KST,LST =  8  1  1  1 NREC =         1 INTLOC = 8482
 II,JST,KST,LST =  9  1  1  1 NREC =         2 INTLOC = 5892
 II,JST,KST,LST = 10  1  1  1 NREC =         2 INTLOC = 9683
 II,JST,KST,LST = 11  1  1  1 NREC =         4 INTLOC = 5067
 II,JST,KST,LST = 12  1  1  1 NREC =         4 INTLOC =12173
 II,JST,KST,LST = 13  1  1  1 NREC =         7 INTLOC =12269
 II,JST,KST,LST = 14  1  1  1 NREC =         8 INTLOC = 8765
 II,JST,KST,LST = 15  1  1  1 NREC =        13 INTLOC = 6415
 II,JST,KST,LST = 16  1  1  1 NREC =        14 INTLOC = 9170
 II,JST,KST,LST = 17  1  1  1 NREC =        21 INTLOC =13658
 II,JST,KST,LST = 18  1  1  1 NREC =        23 INTLOC = 9842
 II,JST,KST,LST = 19  1  1  1 NREC =        34 INTLOC = 3037
 II,JST,KST,LST = 20  1  1  1 NREC =        35 INTLOC =14546
 II,JST,KST,LST = 21  1  1  1 NREC =        48 INTLOC = 3784
 II,JST,KST,LST = 22  1  1  1 NREC =        51 INTLOC =14707
 II,JST,KST,LST = 23  1  1  1 NREC =        56 INTLOC = 4062
 II,JST,KST,LST = 24  1  1  1 NREC =        60 INTLOC = 8518
 II,JST,KST,LST = 25  1  1  1 NREC =        65 INTLOC = 7565
 II,JST,KST,LST = 26  1  1  1 NREC =        70 INTLOC = 8607
 II,JST,KST,LST = 27  1  1  1 NREC =        76 INTLOC =  595
 II,JST,KST,LST = 28  1  1  1 NREC =        81 INTLOC =11063
 II,JST,KST,LST = 29  1  1  1 NREC =        87 INTLOC = 9604
 II,JST,KST,LST = 30  1  1  1 NREC =        93 INTLOC =12824
 SCHWARZ INEQUALITY TEST SKIPPED       24139 INTEGRAL BLOCKS.
 TOTAL NUMBER OF NONZERO TWO-ELECTRON INTEGRALS =             1491019
        100 INTEGRAL RECORDS WERE STORED ON DISK FILE  8.
  ...... END OF TWO-ELECTRON INTEGRALS .....
 STEP CPU TIME =     0.29 TOTAL CPU TIME =          0.4 (      0.0 MIN)
 TOTAL WALL CLOCK TIME=          0.4 SECONDS, CPU UTILIZATION IS    92.31%

          --------------------------
                 RHF SCF CALCULATION
          --------------------------

     NUCLEAR ENERGY =       511.4290929312
     MAXIT =   30     NPUNCH=    2
     EXTRAP=T  DAMP=F  SHIFT=F  RSTRCT=F  DIIS=F  DEM=F  SOSCF=T
     DENSITY MATRIX CONV=  1.00E-05
     SOSCF WILL OPTIMIZE     864 ORBITAL ROTATIONS, SOGTOL=   0.250
     MEMORY REQUIRED FOR RHF ITERS=     59496 WORDS.

 ITER EX DEM     TOTAL ENERGY        E CHANGE  DENSITY CHANGE     ORB. GRAD
   1  0  0     -415.5142736493  -415.5142736493   0.525859390   0.000000000
          ---------------START SECOND ORDER SCF---------------
   2  1  0     -416.0270672760    -0.5127936267   0.238506750   0.066088388
   3  2  0     -416.0575278103    -0.0304605343   0.121549115   0.049836486
   4  3  0     -416.0929946934    -0.0354668831   0.018606840   0.007796475
   5  4  0     -416.0939324517    -0.0009377583   0.004336583   0.003106939
   6  5  0     -416.0940492394    -0.0001167877   0.001846778   0.000765420
   7  6  0     -416.0940624977    -0.0000132583   0.000615504   0.000260788
   8  7  0     -416.0940644597    -0.0000019621   0.000212957   0.000072953
   9  8  0     -416.0940646626    -0.0000002028   0.000121904   0.000030747
  10  9  0     -416.0940647031    -0.0000000405   0.000060789   0.000016900
  11 10  0     -416.0940647099    -0.0000000068   0.000025204   0.000004080
  12 11  0     -416.0940647112    -0.0000000013   0.000008884   0.000001594
  13 12  0     -416.0940647114    -0.0000000002   0.000003941   0.000000697

          -----------------
          DENSITY CONVERGED
          -----------------
     TIME TO FORM FOCK OPERATORS=       0.3 SECONDS (       0.0 SEC/ITER)
     TIME TO SOLVE SCF EQUATIONS=       0.0 SECONDS (       0.0 SEC/ITER)

 FINAL RHF ENERGY IS     -416.0940647114 AFTER  13 ITERATIONS

          ------------
          EIGENVECTORS
          ------------

                      1          2          3          4          5
                  -20.2645   -11.1197   -11.0567   -11.0499   -11.0469
                     A          A          A          A          A   
    1  C  1  S   -0.000000   0.000023  -0.026129  -0.005787   0.004749
    2  C  1  S    0.000003  -0.000004  -0.004001   0.000030   0.000145
    3  C  1  X    0.000001   0.000006  -0.001888  -0.000123  -0.000019
    4  C  1  Y   -0.000002   0.000014   0.000163  -0.000001   0.000012
    5  C  1  Z   -0.000001   0.000006  -0.001945  -0.000281  -0.000028
    6  C  2  S   -0.000001   0.000011  -0.000490   0.000059  -0.001577
    7  C  2  S    0.000012  -0.000036   0.000325   0.000058   0.002277
    8  C  2  X   -0.000007   0.000058   0.000214   0.000042  -0.000322
    9  C  2  Y    0.000001   0.000003   0.000011   0.000041   0.001003
   10  C  2  Z    0.000008  -0.000031  -0.000058   0.000021   0.001157
   11  C  3  S   -0.000005  -0.000235  -0.000702   0.000851  -0.319109
   12  C  3  S   -0.000002   0.000319  -0.000025   0.000065  -0.014554
   13  C  3  X    0.000017  -0.000176  -0.000086   0.000002  -0.001628
   14  C  3  Y    0.000017   0.000046   0.000009   0.000019   0.000369
   15  C  3  Z    0.000041  -0.000201   0.000021   0.000027  -0.001375
   16  C  4  S   -0.000024  -0.001691  -0.004273  -0.008206   0.939046
   17  C  4  S    0.000270  -0.005340  -0.000085  -0.000325   0.035031
   18  C  4  X   -0.000203  -0.001455  -0.000068  -0.000123   0.000770
   19  C  4  Y    0.000240  -0.003729  -0.000070  -0.000051  -0.000496
   20  C  4  Z    0.000354  -0.000259   0.000184   0.000109  -0.000001
   21  C  5  S    0.000003  -0.000284   0.003095  -0.001096   0.004059
   22  C  5  S    0.000030   0.000057  -0.006845   0.000031  -0.006587
   23  C  5  X   -0.000059  -0.000033  -0.002265  -0.000114   0.002659
   24  C  5  Y   -0.000039  -0.000031  -0.000848  -0.000090  -0.003069
   25  C  5  Z    0.000009  -0.000013   0.003870   0.000012  -0.001580
   26  C  6  S    0.000003  -0.000243   0.991558   0.018904   0.004183
   27  C  6  S    0.000006  -0.000053   0.036317  -0.004974   0.000158
   28  C  6  X    0.000025   0.000005   0.000650  -0.001555   0.000116
   29  C  6  Y   -0.000027  -0.000092   0.000146  -0.003825  -0.000164
   30  C  6  Z   -0.000017  -0.000045   0.001531   0.000053  -0.000015
   31  C  7  S    0.000005  -0.000271  -0.018104   0.991816   0.008073
   32  C  7  S    0.000054   0.000108  -0.006636   0.035849   0.000221
   33  C  7  X    0.000037  -0.000056   0.001597  -0.000583   0.000137
   34  C  7  Y    0.000067  -0.000062   0.003993   0.001295   0.000033
   35  C  7  Z   -0.000012   0.000029  -0.000423   0.000922  -0.000087
   36  C  8  S   -0.000025  -0.001006  -0.000981   0.020136  -0.001146
   37  C  8  S    0.000269  -0.005677   0.000303  -0.007398   0.000014
   38  C  8  X   -0.000070   0.002986  -0.000016  -0.001478   0.000034
   39  C  8  Y    0.000442   0.000436  -0.000172   0.003368   0.000033
   40  C  8  Z    0.000252  -0.002805   0.000008   0.002709   0.000046
   41  C  9  S    0.000547   0.992569   0.000254   0.000332   0.002459
   42  C  9  S   -0.007208   0.032683  -0.000002   0.000161  -0.005398
   43  C  9  X    0.002115  -0.000104  -0.000069  -0.000046   0.001449
   44  C  9  Y   -0.004537   0.000434   0.000046   0.000114   0.003741
   45  C  9  Z   -0.003971   0.000133   0.000113   0.000085  -0.000127
   46  O 10  S    0.994266   0.000160   0.000005   0.000013  -0.000018
   47  O 10  S    0.026004  -0.005797  -0.000052  -0.000116   0.000222
   48  O 10  X    0.001856  -0.000574  -0.000009  -0.000032  -0.000054
   49  O 10  Y   -0.003988   0.001206   0.000029   0.000033  -0.000210
   50  O 10  Z   -0.003502   0.001086   0.000016   0.000046   0.000019
   51  H 11  S   -0.000002   0.000002   0.000336  -0.000018  -0.000017
   52  H 12  S   -0.000002   0.000008   0.000337  -0.000975  -0.000033
   53  H 13  S   -0.000002   0.000007  -0.000001   0.000001  -0.000018
   54  H 14  S    0.000085  -0.001088   0.000005  -0.000048   0.002383
   55  H 15  S   -0.000007  -0.000036  -0.000022  -0.000016   0.002364
   56  H 16  S   -0.000178  -0.000019  -0.000094  -0.000002  -0.006635
   57  H 17  S   -0.000020  -0.000055   0.000086  -0.000084   0.000075
   58  H 18  S   -0.000015  -0.000024  -0.006942  -0.000096  -0.000141
   59  H 19  S   -0.000022  -0.000038   0.000207  -0.006826  -0.000109
   60  H 20  S   -0.000191   0.000013  -0.000034   0.000010  -0.000063

                      6          7          8          9         10
                  -11.0460   -11.0458   -11.0267   -11.0150   -11.0080
                     A          A          A          A          A   
    1  C  1  S   -0.202152   0.970959  -0.000211   0.000876  -0.002489
    2  C  1  S   -0.007277   0.035446   0.000043   0.000284  -0.007132
    3  C  1  X    0.000267  -0.001367   0.000025  -0.000030   0.004021
    4  C  1  Y   -0.000166   0.000271   0.000032   0.000060   0.000290
    5  C  1  Z    0.000029  -0.000746  -0.000030  -0.000073  -0.002296
    6  C  2  S    0.002284   0.003840   0.000073  -0.016895   0.991973
    7  C  2  S   -0.004887  -0.007971   0.000026  -0.001097   0.036619
    8  C  2  X    0.001713  -0.003675   0.000005  -0.000469   0.001955
    9  C  2  Y   -0.002682  -0.000799  -0.000004   0.000160  -0.000148
   10  C  2  Z   -0.003464   0.001518   0.000007  -0.000504   0.001848
   11  C  3  S    0.919387   0.193032  -0.000272   0.000796  -0.002568
   12  C  3  S    0.032638   0.006980   0.000091   0.000295  -0.007150
   13  C  3  X   -0.001229  -0.000398  -0.000021  -0.000047  -0.001028
   14  C  3  Y    0.000120  -0.000002   0.000081   0.000033   0.003076
   15  C  3  Z   -0.001858  -0.000345   0.000010  -0.000039   0.003320
   16  C  4  S    0.314220   0.060673   0.001348  -0.003258   0.000512
   17  C  4  S    0.008608   0.001636   0.000232  -0.007194   0.000038
   18  C  4  X    0.002250   0.000466   0.000006  -0.002746  -0.000057
   19  C  4  Y   -0.000444  -0.000112   0.000006   0.003315   0.000119
   20  C  4  Z    0.002007   0.000475   0.000071   0.001636   0.000098
   21  C  5  S    0.000765  -0.000592  -0.002719   0.991966   0.017128
   22  C  5  S   -0.002064  -0.000483  -0.000213   0.036580   0.000147
   23  C  5  X    0.000813   0.000131  -0.000074  -0.001646   0.000462
   24  C  5  Y   -0.000948  -0.000181  -0.000213   0.000830   0.000016
   25  C  5  Z   -0.000521  -0.000089   0.000018  -0.001821   0.000414
   26  C  6  S   -0.003462   0.027021   0.000634  -0.002283   0.000391
   27  C  6  S    0.000496  -0.001983   0.000394  -0.007128   0.000042
   28  C  6  X   -0.000295   0.001984   0.000135   0.002271   0.000116
   29  C  6  Y   -0.000078  -0.000155   0.000091   0.000961   0.000001
   30  C  6  Z   -0.000396   0.001898  -0.000037  -0.003879  -0.000106
   31  C  7  S    0.000695   0.005548  -0.019610   0.001154  -0.000068
   32  C  7  S    0.000014   0.000180  -0.008948   0.000136   0.000008
   33  C  7  X    0.000048   0.000012   0.001505   0.000028  -0.000042
   34  C  7  Y   -0.000005   0.000037  -0.003481  -0.000007   0.000022
   35  C  7  Z   -0.000016  -0.000069  -0.002792  -0.000187  -0.000009
   36  C  8  S   -0.000201   0.000256   0.991965   0.002810  -0.000032
   37  C  8  S    0.000063   0.000027   0.036555   0.000039  -0.000015
   38  C  8  X   -0.000031  -0.000017   0.000555   0.000025  -0.000002
   39  C  8  Y    0.000020   0.000006  -0.001535   0.000186   0.000004
   40  C  8  Z   -0.000001  -0.000018  -0.001008  -0.000079  -0.000001
   41  C  9  S    0.001093   0.000196   0.001995   0.000354  -0.000008
   42  C  9  S   -0.001650  -0.000304  -0.005871   0.000110  -0.000015
   43  C  9  X    0.000443   0.000079  -0.003078  -0.000158   0.000002
   44  C  9  Y    0.001199   0.000228  -0.000607   0.000078   0.000011
   45  C  9  Z   -0.000047  -0.000011   0.002776   0.000019  -0.000052
   46  O 10  S   -0.000014  -0.000002  -0.000022   0.000008  -0.000000
   47  O 10  S    0.000105   0.000018   0.000248  -0.000084   0.000007
   48  O 10  X   -0.000042  -0.000011   0.000162   0.000016   0.000007
   49  O 10  Y   -0.000083  -0.000013   0.000019   0.000033  -0.000005
   50  O 10  Z   -0.000020  -0.000005  -0.000152   0.000037   0.000001
   51  H 11  S    0.001306  -0.006811  -0.000010  -0.000030   0.000098
   52  H 12  S    0.001395  -0.006822  -0.000093  -0.000065  -0.000011
   53  H 13  S    0.000034   0.000064  -0.000004   0.000130  -0.007015
   54  H 14  S   -0.006402  -0.001388  -0.000219  -0.000047  -0.000003
   55  H 15  S   -0.006351  -0.001447  -0.000019  -0.000042   0.000096
   56  H 16  S   -0.002060  -0.000416  -0.000098   0.000108  -0.000034
   57  H 17  S    0.000028   0.000006  -0.000042  -0.006928  -0.000106
   58  H 18  S   -0.000068  -0.000066  -0.000092   0.000097  -0.000047
   59  H 19  S   -0.000034   0.000002   0.000270  -0.000106  -0.000002
   60  H 20  S   -0.000024  -0.000008  -0.006866  -0.000079   0.000001

                     11         12         13         14         15
                   -1.3155    -1.0943    -1.0174    -0.9712    -0.9379
                     A          A          A          A          A   
    1  C  1  S   -0.000756  -0.059793  -0.097204   0.080179  -0.074555
    2  C  1  S    0.001831   0.158783   0.262364  -0.221584   0.213973
    3  C  1  X   -0.000051  -0.009572  -0.073428   0.037290   0.031885
    4  C  1  Y    0.000185   0.004068  -0.000718  -0.007327  -0.007813
    5  C  1  Z    0.000531   0.028530   0.028016  -0.004193   0.003058
    6  C  2  S   -0.001090  -0.059954  -0.141189   0.073248   0.017155
    7  C  2  S    0.002398   0.149295   0.366194  -0.194309  -0.046122
    8  C  2  X    0.000371   0.028765   0.041087  -0.036531   0.057338
    9  C  2  Y    0.000608   0.015924   0.034916  -0.006986  -0.038008
   10  C  2  Z    0.000858   0.015127   0.030054   0.016568  -0.066163
   11  C  3  S   -0.003421  -0.054250  -0.113337   0.017268   0.095707
   12  C  3  S    0.008302   0.143964   0.306967  -0.043913  -0.271863
   13  C  3  X    0.002179   0.022253   0.014437   0.010451  -0.000718
   14  C  3  Y    0.001184  -0.016805  -0.043187   0.018260  -0.003746
   15  C  3  Z    0.001542  -0.012107  -0.057130   0.055385  -0.004277
   16  C  4  S   -0.021302  -0.088122  -0.014265  -0.130114   0.075466
   17  C  4  S    0.053389   0.231617   0.041449   0.361140  -0.217560
   18  C  4  X    0.010404   0.040567  -0.030750   0.052636   0.016925
   19  C  4  Y    0.024865  -0.019229  -0.009494  -0.049688  -0.057640
   20  C  4  Z    0.000868  -0.032480  -0.012692  -0.005083  -0.005603
   21  C  5  S   -0.005510  -0.106522   0.005208  -0.125181  -0.055117
   22  C  5  S    0.012541   0.267441  -0.013590   0.334621   0.150098
   23  C  5  X   -0.002243  -0.007145  -0.024940  -0.050386   0.065512
   24  C  5  Y    0.005335   0.051751  -0.007205   0.048991  -0.032588
   25  C  5  Z    0.000739  -0.040505   0.007968   0.015979  -0.092648
   26  C  6  S   -0.003185  -0.112357   0.030823  -0.014430  -0.131476
   27  C  6  S    0.007596   0.296680  -0.082974   0.035691   0.373977
   28  C  6  X   -0.000690  -0.019130  -0.036847  -0.041950  -0.005833
   29  C  6  Y    0.001961   0.031808  -0.041205  -0.055037  -0.027618
   30  C  6  Z    0.001974   0.041191  -0.019211   0.081289   0.013727
   31  C  7  S   -0.005954  -0.101256   0.101133   0.099185  -0.000321
   32  C  7  S    0.014149   0.257805  -0.266174  -0.267059   0.004663
   33  C  7  X   -0.003353  -0.041231   0.022559   0.011715   0.001252
   34  C  7  Y    0.003666  -0.006860  -0.039775  -0.064502  -0.123954
   35  C  7  Z    0.004595   0.034730  -0.044265  -0.023813  -0.048678
   36  C  8  S   -0.021555  -0.079543   0.099515   0.095187   0.091781
   37  C  8  S    0.052420   0.199600  -0.258331  -0.252501  -0.248511
   38  C  8  X   -0.020277   0.000893  -0.015251  -0.032979   0.021443
   39  C  8  Y   -0.004965  -0.057447   0.054466   0.037367   0.012095
   40  C  8  Z    0.017958  -0.023656   0.031269   0.051442  -0.013955
   41  C  9  S   -0.127527  -0.035239   0.023030  -0.013454   0.067227
   42  C  9  S    0.295207   0.097806  -0.066228   0.038147  -0.198396
   43  C  9  X   -0.051695   0.026271  -0.050929  -0.054959  -0.034283
   44  C  9  Y    0.109195  -0.066382   0.004234  -0.084419   0.080030
   45  C  9  Z    0.095213  -0.055995   0.043008   0.025738   0.079988
   46  O 10  S   -0.214565   0.037889  -0.015667   0.010110  -0.047851
   47  O 10  S    0.749549  -0.141356   0.060116  -0.039624   0.191029
   48  O 10  X    0.054663  -0.003242  -0.009295  -0.014857  -0.004641
   49  O 10  Y   -0.118027   0.004013  -0.004808  -0.019479   0.016096
   50  O 10  Z   -0.103995   0.004496   0.003991   0.009069   0.016081
   51  H 11  S    0.000194   0.030073   0.057132  -0.056171   0.068437
   52  H 12  S    0.000434   0.038724   0.056036  -0.065729   0.062398
   53  H 13  S    0.000317   0.029482   0.083915  -0.047173  -0.011491
   54  H 14  S    0.003555   0.033578   0.070855  -0.010567  -0.085023
   55  H 15  S    0.001358   0.026504   0.067949  -0.005373  -0.080715
   56  H 16  S    0.008757   0.040206   0.014604   0.093315  -0.063521
   57  H 17  S    0.001499   0.049774   0.001792   0.086019   0.045338
   58  H 18  S    0.000807   0.055401  -0.016424   0.003981   0.117757
   59  H 19  S    0.001597   0.048257  -0.060385  -0.074618   0.007668
   60  H 20  S    0.008698   0.034037  -0.057385  -0.068554  -0.068008

                     16         17         18         19         20
                   -0.8528    -0.7758    -0.7541    -0.7087    -0.6569
                     A          A          A          A          A   
    1  C  1  S   -0.130128   0.038300  -0.006707   0.067447   0.005554
    2  C  1  S    0.378996  -0.119078   0.025540  -0.216389  -0.016765
    3  C  1  X   -0.030389  -0.078322   0.073517  -0.130654   0.040724
    4  C  1  Y   -0.010329  -0.039607   0.011789  -0.069032  -0.139069
    5  C  1  Z   -0.050147   0.057057  -0.009042   0.123841  -0.047383
    6  C  2  S   -0.001248  -0.060881   0.046741  -0.113923  -0.006811
    7  C  2  S    0.003526   0.181729  -0.141511   0.352220   0.024249
    8  C  2  X    0.118141  -0.025683   0.001199  -0.049057  -0.067675
    9  C  2  Y   -0.065221  -0.032944   0.051569  -0.134068  -0.126685
   10  C  2  Z   -0.131990   0.020691   0.011011   0.022425   0.007223
   11  C  3  S    0.129193   0.014832  -0.038389   0.066097   0.002731
   12  C  3  S   -0.376307  -0.050292   0.118690  -0.212443  -0.007781
   13  C  3  X    0.052349  -0.003571  -0.014193   0.046905  -0.093171
   14  C  3  Y   -0.003837  -0.071809   0.089930  -0.161065  -0.056380
   15  C  3  Z    0.019696  -0.071723   0.015823  -0.081494   0.089565
   16  C  4  S   -0.062798   0.079640   0.045082  -0.015121  -0.028327
   17  C  4  S    0.182731  -0.247580  -0.133444   0.048711   0.097464
   18  C  4  X    0.055151   0.067235   0.010082   0.049429  -0.146978
   19  C  4  Y    0.030191  -0.105150   0.184673   0.116762   0.002972
   20  C  4  Z    0.039375  -0.079087  -0.046118   0.030372   0.173182
   21  C  5  S    0.006466  -0.098100   0.054278   0.048529   0.027107
   22  C  5  S   -0.018632   0.291435  -0.164904  -0.148963  -0.082675
   23  C  5  X   -0.057587   0.026419   0.114734   0.056961   0.001049
   24  C  5  Y    0.033936  -0.080864   0.016912   0.086643  -0.150396
   25  C  5  Z    0.066840  -0.048410  -0.122209  -0.019862   0.043674
   26  C  6  S    0.072488   0.009500  -0.083708  -0.031680  -0.033424
   27  C  6  S   -0.211203  -0.034352   0.259025   0.099262   0.112005
   28  C  6  X   -0.060930  -0.094749   0.023740   0.075081   0.146707
   29  C  6  Y   -0.010545  -0.110523  -0.060025   0.058316  -0.210253
   30  C  6  Z   -0.031701   0.135199  -0.020015   0.003978  -0.140241
   31  C  7  S    0.055341   0.076690   0.085747  -0.021690   0.025875
   32  C  7  S   -0.161050  -0.233632  -0.254360   0.069415  -0.079223
   33  C  7  X   -0.018771  -0.038130  -0.084325  -0.002623   0.131658
   34  C  7  Y    0.063516   0.093450  -0.136742  -0.111047   0.010069
   35  C  7  Z    0.024681   0.097717   0.030226   0.001597  -0.093579
   36  C  8  S   -0.038560  -0.086304  -0.005598   0.042311  -0.032392
   37  C  8  S    0.111439   0.256098   0.028469  -0.127781   0.113664
   38  C  8  X   -0.049561  -0.022494  -0.165549  -0.053804   0.056816
   39  C  8  Y    0.021664   0.085103   0.038272  -0.090587   0.207951
   40  C  8  Z    0.054761   0.066523   0.167879   0.045607   0.046328
   41  C  9  S   -0.065261   0.002655  -0.105854  -0.054141  -0.013873
   42  C  9  S    0.199471  -0.008868   0.338978   0.176482   0.044220
   43  C  9  X    0.037157   0.146952   0.066828  -0.019279   0.000381
   44  C  9  Y   -0.074217   0.133452  -0.026002  -0.101699   0.044160
   45  C  9  Z   -0.047871  -0.073423  -0.112300   0.018949   0.038636
   46  O 10  S    0.037838  -0.003274   0.058202   0.024419   0.028801
   47  O 10  S   -0.157353   0.014497  -0.255831  -0.109868  -0.137698
   48  O 10  X    0.016808   0.071881   0.052966  -0.001579   0.039221
   49  O 10  Y   -0.030025   0.070432  -0.052204  -0.083515  -0.055682
   50  O 10  Z   -0.019852  -0.034265  -0.092779  -0.008215  -0.049067
   51  H 11  S    0.141844  -0.057291   0.018799  -0.120708   0.100733
   52  H 12  S    0.120694  -0.096643   0.026140  -0.177680  -0.081200
   53  H 13  S    0.001052   0.092547  -0.082332   0.232622   0.113173
   54  H 14  S   -0.117782  -0.053223   0.103414  -0.168119  -0.070798
   55  H 15  S   -0.140828  -0.033673   0.046983  -0.121409   0.095293
   56  H 16  S    0.055507  -0.135690  -0.101651  -0.001633   0.195211
   57  H 17  S   -0.009158   0.145639  -0.103342  -0.121311   0.072764
   58  H 18  S   -0.078007  -0.030858   0.137710   0.037892   0.258229
   59  H 19  S   -0.065389  -0.135381  -0.160712   0.015184   0.077885
   60  H 20  S    0.036217   0.135706  -0.013975  -0.121236   0.192895

                     21         22         23         24         25
                   -0.6044    -0.5931    -0.5874    -0.5544    -0.5396
                     A          A          A          A          A   
    1  C  1  S   -0.014342  -0.009300   0.000335  -0.000461   0.005143
    2  C  1  S    0.051355   0.027020   0.003415   0.001116  -0.025365
    3  C  1  X    0.094954  -0.001704   0.126125  -0.028250  -0.153360
    4  C  1  Y   -0.205426  -0.103189   0.100556  -0.248900  -0.187509
    5  C  1  Z   -0.140500  -0.138630  -0.079178   0.012503   0.055868
    6  C  2  S    0.025567   0.007275   0.006312   0.015832  -0.008135
    7  C  2  S   -0.079320  -0.020367  -0.019566  -0.052398   0.026685
    8  C  2  X   -0.109610  -0.076549  -0.119894   0.066549   0.125198
    9  C  2  Y   -0.201791  -0.090585  -0.003400  -0.118556  -0.033714
   10  C  2  Z   -0.009506  -0.068501   0.091946  -0.045671  -0.135539
   11  C  3  S   -0.012194  -0.010652  -0.006177  -0.004929   0.001786
   12  C  3  S    0.044386   0.034176   0.017654   0.026096  -0.001953
   13  C  3  X   -0.206979  -0.121929  -0.106751   0.063768   0.120176
   14  C  3  Y   -0.041479   0.089276  -0.174119   0.134423   0.251049
   15  C  3  Z    0.191326   0.038040   0.021099   0.080513  -0.026595
   16  C  4  S   -0.003291   0.055948  -0.007928  -0.020212  -0.010097
   17  C  4  S    0.008549  -0.189973   0.022712   0.070436   0.034366
   18  C  4  X   -0.011233   0.102310   0.060939   0.128758  -0.073713
   19  C  4  Y   -0.012198   0.103766  -0.227277  -0.022649  -0.113799
   20  C  4  Z   -0.002102  -0.043716  -0.036415  -0.241802   0.061575
   21  C  5  S    0.011585  -0.056424  -0.003907  -0.010005   0.017204
   22  C  5  S   -0.041120   0.192160   0.011965   0.028355  -0.056212
   23  C  5  X    0.036169   0.037420  -0.137927  -0.061094  -0.080368
   24  C  5  Y    0.103873  -0.208409   0.102943   0.262467  -0.099294
   25  C  5  Z   -0.054069   0.067626   0.144710  -0.081981   0.154707
   26  C  6  S   -0.009897   0.054736   0.011213   0.001549   0.007198
   27  C  6  S    0.032798  -0.191858  -0.034545  -0.007341  -0.021439
   28  C  6  X   -0.051971   0.007524   0.066412  -0.086260   0.168509
   29  C  6  Y    0.046884  -0.004704   0.196662   0.019630   0.012369
   30  C  6  Z    0.066654   0.065133  -0.106784   0.038122  -0.123195
   31  C  7  S    0.003688  -0.045458  -0.009938   0.006529  -0.018366
   32  C  7  S   -0.024346   0.151367   0.052169  -0.011447   0.061753
   33  C  7  X   -0.169438   0.122661   0.013003   0.192046  -0.054487
   34  C  7  Y    0.039460   0.041228  -0.225888  -0.040502  -0.077333
   35  C  7  Z    0.210434  -0.081015  -0.129166  -0.199972   0.063715
   36  C  8  S   -0.020898   0.045759   0.022472   0.020217  -0.004384
   37  C  8  S    0.055370  -0.151600  -0.062458  -0.058483   0.013165
   38  C  8  X    0.022562  -0.073668  -0.165412   0.029924  -0.139008
   39  C  8  Y   -0.164529  -0.164234   0.051620   0.233956  -0.162942
   40  C  8  Z   -0.058658   0.021356   0.183299   0.044024   0.071839
   41  C  9  S    0.042811  -0.080180  -0.012342   0.009092   0.022760
   42  C  9  S   -0.146955   0.279840   0.039795  -0.029267  -0.077334
   43  C  9  X    0.021076  -0.034356   0.241189  -0.031699   0.150500
   44  C  9  Y   -0.063436  -0.001907   0.183028   0.006724   0.067781
   45  C  9  Z   -0.018775   0.031252  -0.086100  -0.062324  -0.193482
   46  O 10  S   -0.041043   0.049812   0.005355  -0.009103  -0.034295
   47  O 10  S    0.202032  -0.245432  -0.026160   0.046549   0.178369
   48  O 10  X   -0.071182   0.050068   0.227980  -0.005887   0.042498
   49  O 10  Y    0.098002  -0.192232   0.158539   0.094955   0.298751
   50  O 10  Z    0.128793  -0.135414  -0.105226  -0.029110   0.019292
   51  H 11  S    0.228570   0.143396   0.000697   0.148351   0.056407
   52  H 12  S   -0.071947  -0.018386   0.130205  -0.198068  -0.208060
   53  H 13  S    0.140127   0.081061   0.039011   0.035050  -0.012459
   54  H 14  S   -0.077750   0.066903  -0.151180   0.117917   0.235407
   55  H 15  S    0.238595   0.098298   0.109431  -0.022764  -0.131345
   56  H 16  S    0.019387  -0.176611  -0.001070  -0.190847   0.112317
   57  H 17  S   -0.107582   0.259208  -0.024437  -0.208445   0.101278
   58  H 18  S   -0.051623  -0.096160  -0.063737  -0.063454   0.112442
   59  H 19  S   -0.212459   0.194904   0.074855   0.223250  -0.051564
   60  H 20  S   -0.075951  -0.217899  -0.049122   0.160315  -0.169694

                     26         27         28         29         30
                   -0.5170    -0.5079    -0.4880    -0.4776    -0.4470
                     A          A          A          A          A   
    1  C  1  S    0.009318   0.009040   0.008104  -0.029637   0.009781
    2  C  1  S   -0.036825  -0.019979  -0.031984   0.103538  -0.036556
    3  C  1  X    0.070593   0.219144  -0.043695  -0.202609   0.106604
    4  C  1  Y    0.051769  -0.040610   0.264102   0.030946  -0.056757
    5  C  1  Z   -0.201191   0.059514   0.024633   0.197172  -0.185338
    6  C  2  S   -0.013600   0.015961  -0.008843   0.005981  -0.003191
    7  C  2  S    0.048240  -0.057043   0.037326  -0.026279   0.011720
    8  C  2  X   -0.182152  -0.024287  -0.065184   0.266812  -0.148376
    9  C  2  Y    0.111138  -0.047056  -0.255119   0.087353   0.083144
   10  C  2  Z    0.046610   0.241528  -0.163311  -0.086900   0.120968
   11  C  3  S   -0.009418  -0.000533   0.032607  -0.001514  -0.005691
   12  C  3  S    0.023555   0.009706  -0.113518   0.009961   0.018342
   13  C  3  X   -0.006257   0.176415  -0.094068  -0.164758   0.132797
   14  C  3  Y   -0.029351  -0.194941   0.180781  -0.153794  -0.063042
   15  C  3  Z   -0.201189   0.043191   0.155284   0.210859  -0.159401
   16  C  4  S   -0.009651  -0.008690   0.001912   0.001195   0.000425
   17  C  4  S    0.027095   0.042907  -0.006915   0.002778   0.006567
   18  C  4  X    0.268736  -0.085986  -0.032400  -0.027058  -0.221457
   19  C  4  Y    0.077072   0.063758   0.133882   0.098857   0.119038
   20  C  4  Z   -0.036364  -0.222248   0.020246  -0.008905   0.192495
   21  C  5  S   -0.010418   0.020069  -0.006979   0.006903  -0.001640
   22  C  5  S    0.038541  -0.070443   0.027087  -0.024170   0.005108
   23  C  5  X    0.033060  -0.191381   0.063932   0.053862   0.251503
   24  C  5  Y    0.056074  -0.139653  -0.103427  -0.043615  -0.061905
   25  C  5  Z    0.162388  -0.051634  -0.014611  -0.099016  -0.250426
   26  C  6  S    0.019106   0.011953  -0.005474   0.010886  -0.004893
   27  C  6  S   -0.074945  -0.033728   0.016982  -0.042293   0.006416
   28  C  6  X    0.201108  -0.107244  -0.003612  -0.067463  -0.153575
   29  C  6  Y   -0.159153  -0.124714   0.099398  -0.156647  -0.008325
   30  C  6  Z   -0.048434  -0.223209   0.039430   0.045076   0.302011
   31  C  7  S    0.021615   0.001880   0.011261   0.004075  -0.002232
   32  C  7  S   -0.078970  -0.013354  -0.026635  -0.016029   0.015119
   33  C  7  X    0.121951  -0.075590  -0.041858   0.179107   0.130894
   34  C  7  Y    0.033747   0.162701  -0.113667   0.093701   0.004977
   35  C  7  Z    0.009129  -0.104697  -0.138675  -0.063637  -0.074324
   36  C  8  S   -0.009484  -0.005617  -0.001263   0.004310   0.011396
   37  C  8  S    0.035753   0.014571   0.016033  -0.015936  -0.039806
   38  C  8  X    0.044733  -0.149609  -0.111302  -0.051775  -0.081463
   39  C  8  Y   -0.008393  -0.088178   0.166774  -0.093149   0.003317
   40  C  8  Z    0.071332  -0.122646   0.008379   0.117223   0.096620
   41  C  9  S    0.007871  -0.011113   0.009333  -0.015196   0.000791
   42  C  9  S   -0.020153   0.045286  -0.028123   0.061113  -0.000912
   43  C  9  X    0.114022  -0.133108  -0.094085   0.185989   0.082660
   44  C  9  Y   -0.299955  -0.022841  -0.106628  -0.138917   0.012075
   45  C  9  Z   -0.028505  -0.235116  -0.220513  -0.073680  -0.143815
   46  O 10  S   -0.051711  -0.017246  -0.031196  -0.026261  -0.013447
   47  O 10  S    0.276048   0.093060   0.171579   0.146760   0.078004
   48  O 10  X   -0.115866  -0.182598  -0.243965   0.056916   0.052205
   49  O 10  Y    0.146882   0.125860   0.198252   0.190243   0.263673
   50  O 10  Z    0.340790  -0.054624   0.080381   0.179977  -0.010398
   51  H 11  S    0.085354   0.033302  -0.240193  -0.138432   0.170246
   52  H 12  S    0.096900   0.005503   0.214796  -0.053656   0.021213
   53  H 13  S    0.009415   0.031958   0.264847  -0.215009   0.003407
   54  H 14  S    0.014245  -0.118814   0.095340  -0.227871   0.010451
   55  H 15  S   -0.082197  -0.092488   0.073497   0.275950  -0.179041
   56  H 16  S   -0.163336  -0.119263   0.008732  -0.003915   0.260563
   57  H 17  S    0.005217   0.104259   0.100161  -0.008285  -0.046506
   58  H 18  S    0.201836   0.092817  -0.084743   0.027353  -0.202987
   59  H 19  S    0.044965   0.033355   0.029191   0.181774   0.168513
   60  H 20  S    0.026992  -0.118654   0.113318  -0.116699  -0.056129

                     31         32         33         34         35
                   -0.4434    -0.4185    -0.3647    -0.3155    -0.2824
                     A          A          A          A          A   
    1  C  1  S   -0.008528   0.002737  -0.002588  -0.000069  -0.027065
    2  C  1  S    0.036443   0.004707  -0.005951   0.000918   0.128639
    3  C  1  X    0.010719   0.214872  -0.050930  -0.009014   0.232150
    4  C  1  Y   -0.205208   0.027586   0.114999  -0.029642  -0.016459
    5  C  1  Z    0.062977   0.159619  -0.146032   0.018519   0.269576
    6  C  2  S    0.003258   0.020123   0.012902  -0.004043   0.006617
    7  C  2  S   -0.017020  -0.071300  -0.049083   0.013479  -0.027405
    8  C  2  X    0.092571  -0.016074   0.074576   0.013004   0.004165
    9  C  2  Y    0.121588  -0.214129  -0.116863   0.019172  -0.030467
   10  C  2  Z    0.095131   0.106589   0.058065   0.006167   0.118087
   11  C  3  S   -0.016422  -0.003709  -0.013769  -0.002324   0.012556
   12  C  3  S    0.058401   0.014475   0.076267   0.010720  -0.070018
   13  C  3  X    0.017076   0.104829   0.274472  -0.007841  -0.167708
   14  C  3  Y   -0.128248   0.172321  -0.076435  -0.031201   0.070825
   15  C  3  Z   -0.037881   0.035603   0.246399   0.005924  -0.142577
   16  C  4  S    0.025356   0.008798  -0.017283  -0.030996   0.008919
   17  C  4  S   -0.092519  -0.029834   0.092267   0.141382  -0.051208
   18  C  4  X   -0.030346  -0.043777  -0.209111   0.126821   0.187116
   19  C  4  Y    0.138163   0.027318   0.072319   0.310532   0.044935
   20  C  4  Z    0.031906   0.013930  -0.281681   0.000874   0.196039
   21  C  5  S    0.005244   0.016576   0.012164   0.006351   0.003719
   22  C  5  S   -0.011122  -0.061849  -0.043276  -0.019896  -0.011216
   23  C  5  X   -0.009092  -0.094800  -0.025590   0.100068  -0.026529
   24  C  5  Y   -0.221740  -0.087121  -0.089585  -0.082992   0.007269
   25  C  5  Z    0.071133  -0.103215  -0.028645   0.085322   0.074734
   26  C  6  S   -0.003088  -0.007895   0.018742  -0.001576  -0.005783
   27  C  6  S    0.022576   0.042335  -0.082601   0.009816   0.047568
   28  C  6  X   -0.003052  -0.228218   0.223978   0.046415  -0.195255
   29  C  6  Y    0.335222   0.000713   0.044487   0.075461   0.013773
   30  C  6  Z   -0.061367  -0.135888   0.113079  -0.041854  -0.161256
   31  C  7  S   -0.011242   0.004107  -0.010049  -0.011982   0.005122
   32  C  7  S    0.058254  -0.013300   0.039799   0.043418  -0.020653
   33  C  7  X   -0.087838   0.007052   0.219214  -0.171294   0.269045
   34  C  7  Y   -0.320032   0.043879  -0.169155   0.032834  -0.041243
   35  C  7  Z   -0.034408  -0.038354   0.307936  -0.035772   0.254974
   36  C  8  S   -0.004210  -0.000249   0.005899   0.036784   0.007050
   37  C  8  S    0.033597   0.000512  -0.024561  -0.164187  -0.034033
   38  C  8  X   -0.010213   0.053553   0.287476   0.131302   0.327294
   39  C  8  Y    0.183842  -0.044829  -0.070703   0.103688  -0.112546
   40  C  8  Z    0.108533   0.083164   0.220734  -0.287373   0.254886
   41  C  9  S   -0.003416  -0.002244   0.008100   0.000924  -0.008857
   42  C  9  S    0.014517   0.011812  -0.029901  -0.001870   0.037466
   43  C  9  X   -0.014344   0.310391  -0.024625  -0.094501  -0.124970
   44  C  9  Y   -0.174013  -0.135989   0.014337  -0.136696  -0.014640
   45  C  9  Z    0.018335   0.267240   0.031862   0.104872  -0.103413
   46  O 10  S   -0.011981  -0.002950   0.001019  -0.000346   0.000145
   47  O 10  S    0.070127   0.017802  -0.008533   0.001786   0.001871
   48  O 10  X   -0.201083   0.321830   0.075131   0.565581  -0.176825
   49  O 10  Y   -0.099743  -0.100523   0.041121   0.475223   0.224076
   50  O 10  Z    0.243148   0.354057  -0.056128  -0.239113  -0.308445
   51  H 11  S    0.138071  -0.084679  -0.003622   0.013355  -0.075772
   52  H 12  S   -0.194801   0.047814   0.132762  -0.032529  -0.025232
   53  H 13  S   -0.164198   0.189573   0.063709  -0.023046   0.028255
   54  H 14  S   -0.094640   0.175736  -0.049647  -0.048367   0.062112
   55  H 15  S    0.016335  -0.094157  -0.079802   0.020313   0.044746
   56  H 16  S   -0.032455   0.015234  -0.118627  -0.109623   0.033554
   57  H 17  S    0.242395   0.044805   0.078777   0.112479   0.018989
   58  H 18  S   -0.221825  -0.075062   0.019728  -0.008981  -0.083335
   59  H 19  S   -0.069744   0.032965  -0.066827  -0.115217   0.004252
   60  H 20  S    0.189538  -0.025419   0.040844   0.120352   0.004816

                     36         37         38         39         40
                   -0.2114     0.1941     0.2213     0.3783     0.3917
                     A          A          A          A          A   
    1  C  1  S   -0.028069  -0.011024  -0.038343   0.030041  -0.039699
    2  C  1  S    0.104038   0.079978   0.188909  -0.130638   0.202121
    3  C  1  X    0.126196   0.191559   0.211412  -0.194077   0.316837
    4  C  1  Y   -0.020081  -0.023410  -0.018083   0.113008  -0.038518
    5  C  1  Z    0.169416   0.138346   0.229781  -0.329684   0.288757
    6  C  2  S    0.024990  -0.022922  -0.003032  -0.002490  -0.005650
    7  C  2  S   -0.120326   0.127066   0.017337   0.018532   0.043495
    8  C  2  X    0.323508  -0.343668  -0.081341  -0.058278  -0.156619
    9  C  2  Y   -0.232491   0.197324   0.046363   0.031355   0.095273
   10  C  2  Z    0.399392  -0.416973  -0.022338  -0.093637  -0.187115
   11  C  3  S   -0.030849  -0.017660   0.032974  -0.051031  -0.008999
   12  C  3  S    0.117089   0.112562  -0.154928   0.244587   0.059394
   13  C  3  X    0.187359   0.187097  -0.177102   0.407484   0.036308
   14  C  3  Y   -0.055124  -0.012509   0.037456  -0.154709   0.083019
   15  C  3  Z    0.154199   0.219944  -0.136283   0.392132   0.066347
   16  C  4  S    0.033835  -0.014872  -0.015675   0.053208  -0.023185
   17  C  4  S   -0.134187   0.094769   0.061120  -0.256028   0.134087
   18  C  4  X    0.134256  -0.207712  -0.107645   0.375758  -0.076165
   19  C  4  Y   -0.040123   0.056843   0.011857  -0.011567  -0.043097
   20  C  4  Z    0.176436  -0.168720  -0.117440   0.410840  -0.082579
   21  C  5  S   -0.024937  -0.022704  -0.002364   0.007311   0.020400
   22  C  5  S    0.119016   0.126020   0.011696  -0.040773  -0.112294
   23  C  5  X    0.435267   0.480432   0.006210  -0.076666  -0.058903
   24  C  5  Y    0.113554   0.076125   0.024795  -0.004514  -0.062947
   25  C  5  Z    0.341955   0.396528   0.085203   0.027705  -0.088043
   26  C  6  S    0.030973  -0.016833   0.010645  -0.056178   0.020830
   27  C  6  S   -0.123070   0.102665  -0.029620   0.287170  -0.087817
   28  C  6  X    0.191643  -0.179911   0.091140  -0.383875   0.241541
   29  C  6  Y   -0.024975   0.028741   0.001251  -0.013405  -0.027764
   30  C  6  Z    0.158476  -0.230531   0.065488  -0.291853   0.207571
   31  C  7  S    0.009331   0.017700   0.004961   0.000456  -0.000824
   32  C  7  S   -0.038583  -0.084960  -0.022770  -0.003604   0.007021
   33  C  7  X   -0.020636  -0.041733   0.387470   0.317290   0.223460
   34  C  7  Y    0.062026   0.129415  -0.106158  -0.108038  -0.077084
   35  C  7  Z   -0.051318  -0.082678   0.371569   0.308567   0.207492
   36  C  8  S   -0.004574  -0.008418  -0.001049  -0.002257  -0.002056
   37  C  8  S    0.020411   0.037503   0.004842   0.013244   0.011620
   38  C  8  X   -0.123067   0.118849  -0.257141  -0.234684  -0.362456
   39  C  8  Y    0.027397  -0.061043   0.103523   0.097437   0.147582
   40  C  8  Z   -0.077844   0.149892  -0.269060  -0.248764  -0.370460
   41  C  9  S    0.009393   0.019904  -0.001429  -0.001271   0.000227
   42  C  9  S   -0.040013  -0.095789   0.005359   0.009847  -0.000489
   43  C  9  X    0.032418   0.043528  -0.318787  -0.011959   0.439225
   44  C  9  Y    0.062652   0.118422   0.128948   0.014209  -0.180426
   45  C  9  Z   -0.006936  -0.029242  -0.327322  -0.006081   0.439068
   46  O 10  S   -0.000156  -0.002396  -0.000374   0.001606  -0.000477
   47  O 10  S   -0.001115   0.010687   0.002603  -0.010826   0.002584
   48  O 10  X   -0.066435  -0.018953   0.374106   0.003793  -0.313681
   49  O 10  Y   -0.061254  -0.070266  -0.154837   0.010215   0.125055
   50  O 10  Z    0.011793   0.027099   0.371032   0.018090  -0.313792
   51  H 11  S   -0.002692  -0.057164  -0.044855  -0.017265  -0.035023
   52  H 12  S    0.077207  -0.150064  -0.028988  -0.083538  -0.045199
   53  H 13  S    0.052564  -0.020218  -0.000703  -0.000233   0.013966
   54  H 14  S    0.070326  -0.142218  -0.009651   0.020683  -0.080129
   55  H 15  S   -0.001658  -0.074821   0.025009  -0.009860  -0.038245
   56  H 16  S    0.008042  -0.066709   0.021735  -0.007634  -0.093505
   57  H 17  S   -0.063386  -0.024059  -0.002773   0.003112   0.033348
   58  H 18  S    0.000887  -0.072425  -0.058849  -0.073164  -0.076619
   59  H 19  S    0.024629   0.034395   0.000907   0.003174  -0.017917
   60  H 20  S   -0.025949  -0.047886  -0.013313  -0.017670  -0.011204

                     41         42         43         44         45
                    0.5297     0.5709     0.5867     0.6195     0.6258
                     A          A          A          A          A   
    1  C  1  S   -0.013690  -0.023575   0.000826  -0.006206   0.036299
    2  C  1  S    0.054117   0.152623  -0.004503   0.041857  -0.227772
    3  C  1  X    0.373468  -0.043799   0.040065  -0.038437   0.002992
    4  C  1  Y   -0.050825  -0.241454   0.212318   0.084481   0.390518
    5  C  1  Z    0.332591  -0.107080  -0.021990  -0.002808   0.072537
    6  C  2  S   -0.034026  -0.020573   0.011702   0.002629   0.045140
    7  C  2  S    0.212433   0.127690  -0.073544  -0.018889  -0.285748
    8  C  2  X   -0.198683  -0.115601   0.090885  -0.043542   0.264156
    9  C  2  Y    0.174357  -0.225202   0.147979   0.006913   0.416649
   10  C  2  Z   -0.255492   0.005932   0.001495   0.008019   0.025726
   11  C  3  S   -0.014431  -0.012457   0.023733   0.027330   0.030289
   12  C  3  S    0.057844   0.081323  -0.152145  -0.170223  -0.189525
   13  C  3  X    0.341214  -0.189142   0.148167   0.004679   0.239495
   14  C  3  Y   -0.046386  -0.207591   0.047812  -0.150954   0.282170
   15  C  3  Z    0.384042   0.082298  -0.038039   0.039044  -0.181944
   16  C  4  S    0.046078   0.000971   0.048444   0.106420  -0.009767
   17  C  4  S   -0.242617   0.016750  -0.294641  -0.623061   0.071378
   18  C  4  X    0.365341  -0.220860   0.080938  -0.265382  -0.171840
   19  C  4  Y   -0.156403  -0.346235  -0.042536  -0.487355  -0.171424
   20  C  4  Z    0.348133   0.142107  -0.153029  -0.161286   0.075777
   21  C  5  S    0.010921  -0.045112   0.018493   0.004063  -0.051719
   22  C  5  S   -0.081763   0.282168  -0.118669  -0.028287   0.325454
   23  C  5  X   -0.303151  -0.016048   0.000606   0.016284   0.011638
   24  C  5  Y   -0.083123  -0.317615   0.151301   0.010580  -0.306506
   25  C  5  Z   -0.210990   0.090375  -0.108410   0.198536   0.111089
   26  C  6  S    0.042589  -0.052125  -0.066793  -0.013310   0.007584
   27  C  6  S   -0.223903   0.328917   0.386621   0.074667  -0.030692
   28  C  6  X    0.303829   0.180565   0.262714  -0.141234  -0.037802
   29  C  6  Y   -0.097659  -0.274578   0.416963   0.166188  -0.331110
   30  C  6  Z    0.422430  -0.111088  -0.041573   0.093744  -0.095598
   31  C  7  S   -0.018251  -0.050755   0.024433   0.054545  -0.052285
   32  C  7  S    0.104998   0.307926  -0.132474  -0.363026   0.313333
   33  C  7  X   -0.231824   0.168630   0.336208  -0.156742  -0.001836
   34  C  7  Y   -0.006668  -0.004351   0.448567   0.041472  -0.195327
   35  C  7  Z   -0.178388  -0.222642  -0.239895   0.218134  -0.066366
   36  C  8  S    0.015555   0.013116   0.024468   0.107471   0.001481
   37  C  8  S   -0.091058  -0.055312  -0.126814  -0.662213  -0.003157
   38  C  8  X    0.166584   0.202247   0.439721   0.041204  -0.062957
   39  C  8  Y   -0.089597   0.099258   0.269396  -0.333567  -0.049170
   40  C  8  Z    0.179737  -0.124531  -0.293448  -0.224443   0.031881
   41  C  9  S   -0.020652  -0.091776  -0.093770  -0.123879  -0.019411
   42  C  9  S    0.118875   0.540290   0.553753   0.727458   0.112006
   43  C  9  X   -0.245304  -0.019250   0.279832   0.017612  -0.111592
   44  C  9  Y    0.001372  -0.142941   0.082718  -0.455280  -0.126907
   45  C  9  Z   -0.191895  -0.046979  -0.243689  -0.097545   0.051603
   46  O 10  S    0.003506   0.018709   0.014192   0.006533   0.003863
   47  O 10  S   -0.021096  -0.116922  -0.084839  -0.025381  -0.025090
   48  O 10  X    0.116959  -0.033942  -0.109769   0.015356   0.021670
   49  O 10  Y   -0.003678   0.137592   0.022690   0.091294   0.060148
   50  O 10  Z    0.116703   0.100580   0.116275  -0.025213   0.002612
   51  H 11  S    0.075111  -0.318520   0.158375   0.045316   0.459481
   52  H 12  S    0.000281   0.133349  -0.222899  -0.089738  -0.241496
   53  H 13  S   -0.044217  -0.348178   0.224880  -0.008813   0.658632
   54  H 14  S   -0.008917   0.229098  -0.026031   0.225586  -0.287443
   55  H 15  S    0.070612  -0.286656   0.231560   0.030475   0.443456
   56  H 16  S    0.005869  -0.319479   0.335909   0.217348  -0.236610
   57  H 17  S   -0.040959  -0.514852   0.258480  -0.047159  -0.510995
   58  H 18  S    0.030543  -0.527776  -0.085612   0.194849  -0.235386
   59  H 19  S   -0.012205  -0.461565  -0.417983   0.427626  -0.171487
   60  H 20  S    0.089847  -0.137211  -0.388825   0.657607   0.088402

                     46         47         48         49         50
                    0.6607     0.6978     0.7140     0.7291     0.7432
                     A          A          A          A          A   
    1  C  1  S    0.026938  -0.102924  -0.055731   0.120624  -0.070399
    2  C  1  S   -0.166459   0.655561   0.347019  -0.770587   0.444530
    3  C  1  X    0.063977   0.160515  -0.186023   0.028248   0.224870
    4  C  1  Y   -0.291820  -0.106223   0.181252  -0.536877   0.054016
    5  C  1  Z   -0.030861  -0.426804   0.082688   0.084415  -0.275221
    6  C  2  S   -0.008924   0.053939   0.077829  -0.012902  -0.012342
    7  C  2  S    0.052136  -0.328279  -0.483337   0.080650   0.104603
    8  C  2  X    0.044829   0.131292  -0.049877   0.219689   0.051419
    9  C  2  Y   -0.085400  -0.020425   0.057024  -0.115596  -0.054963
   10  C  2  Z   -0.123861  -0.069980   0.066694  -0.231481   0.030237
   11  C  3  S    0.002519  -0.062551  -0.127669  -0.091685  -0.073074
   12  C  3  S   -0.018289   0.388029   0.815545   0.589374   0.461087
   13  C  3  X    0.194561   0.133984  -0.381209   0.196684  -0.074280
   14  C  3  Y    0.021539   0.143137   0.189233   0.427210   0.307853
   15  C  3  Z   -0.167991  -0.234262   0.122276  -0.266720   0.075715
   16  C  4  S    0.017255  -0.015892  -0.057365   0.025051   0.126613
   17  C  4  S   -0.116761   0.100142   0.372792  -0.139424  -0.789465
   18  C  4  X    0.372592   0.205451   0.060146  -0.153432  -0.118760
   19  C  4  Y    0.042015  -0.115958  -0.065376  -0.081495   0.172710
   20  C  4  Z   -0.427867  -0.068726   0.179781   0.166785  -0.058927
   21  C  5  S    0.005898   0.044711   0.067055  -0.000149  -0.145018
   22  C  5  S   -0.043486  -0.279418  -0.433277   0.003944   0.923180
   23  C  5  X    0.267180   0.000606   0.016837  -0.124529  -0.124349
   24  C  5  Y   -0.026243  -0.102216  -0.001163   0.016704   0.072896
   25  C  5  Z   -0.182551  -0.067736   0.040447   0.154500  -0.094838
   26  C  6  S    0.070782  -0.090737   0.009011  -0.044848   0.116225
   27  C  6  S   -0.418999   0.573757  -0.049622   0.262873  -0.728654
   28  C  6  X   -0.062589   0.387007  -0.205829  -0.078307  -0.043055
   29  C  6  Y   -0.418878  -0.138331  -0.083939   0.199761   0.248919
   30  C  6  Z   -0.223772  -0.064444   0.236853   0.069281  -0.115430
   31  C  7  S   -0.111343   0.088473  -0.075170   0.042368  -0.027497
   32  C  7  S    0.682946  -0.576865   0.474907  -0.257757   0.168276
   33  C  7  X    0.062428  -0.135670  -0.037389   0.022117   0.084053
   34  C  7  Y   -0.258236   0.061355   0.085667   0.128161  -0.115036
   35  C  7  Z   -0.070116   0.000308   0.020368   0.122221  -0.110734
   36  C  8  S    0.091531  -0.030934   0.108515   0.006099  -0.032929
   37  C  8  S   -0.552602   0.181337  -0.696677  -0.043448   0.220934
   38  C  8  X    0.006586  -0.008096   0.070782   0.072986  -0.044163
   39  C  8  Y   -0.139153  -0.252123  -0.000584   0.068821   0.060959
   40  C  8  Z   -0.106657  -0.007852  -0.045921  -0.074465   0.029269
   41  C  9  S    0.002517   0.035221  -0.036999  -0.046854  -0.023042
   42  C  9  S   -0.027577  -0.224699   0.220154   0.283339   0.136885
   43  C  9  X    0.271316  -0.067060   0.239339  -0.038989  -0.185444
   44  C  9  Y    0.052676  -0.102063   0.245027  -0.032934  -0.176785
   45  C  9  Z   -0.225450  -0.086424  -0.263385  -0.045544   0.128342
   46  O 10  S   -0.017169  -0.021041   0.005269   0.010528   0.008716
   47  O 10  S    0.122560   0.143932  -0.033192  -0.070496  -0.059247
   48  O 10  X   -0.017541   0.090815  -0.080038  -0.018033   0.028419
   49  O 10  Y   -0.171358  -0.118734  -0.060214   0.069173   0.110974
[...]
   31  C  7  S   -0.036797  -0.026182  -0.025541   0.082052   0.016161
   32  C  7  S    0.215755   0.157277   0.177129  -0.497247  -0.121081
   33  C  7  X    0.074547  -0.019637   0.390496   0.050353  -0.131585
   34  C  7  Y   -0.045414  -0.102254   0.276655   0.438930  -0.003977
   35  C  7  Z   -0.119883   0.027779  -0.326826  -0.029421   0.120470
   36  C  8  S    0.048144   0.022200  -0.012499   0.040363   0.093489
   37  C  8  S   -0.268100  -0.131672   0.102805  -0.244205  -0.574057
   38  C  8  X    0.245103   0.026053   0.301920   0.254169   0.123953
   39  C  8  Y   -0.000999  -0.035847   0.357932   0.093179  -0.262723
   40  C  8  Z   -0.097389   0.009267  -0.274614  -0.216453  -0.089082
   41  C  9  S   -0.114232   0.047267  -0.052888  -0.079467  -0.096745
   42  C  9  S    0.659028  -0.283483   0.317075   0.473692   0.565917
   43  C  9  X   -0.100077   0.137075   0.298778   0.172880  -0.010174
   44  C  9  Y   -0.267099   0.122072   0.170330  -0.020166  -0.293704
   45  C  9  Z   -0.169719  -0.132895  -0.098768  -0.156254  -0.166107
   46  O 10  S    0.013260  -0.019996   0.013322   0.011657   0.004366
   47  O 10  S   -0.074795   0.132184  -0.086181  -0.068689  -0.015170
   48  O 10  X    0.032259   0.011832  -0.138757  -0.063078   0.027001
   49  O 10  Y    0.100162  -0.181144   0.027779   0.041917   0.044674
   50  O 10  Z    0.092184  -0.083841   0.090744   0.072904   0.010759
   51  H 11  S   -0.242078  -0.115223   0.220338  -0.203328   0.431385
   52  H 12  S    0.206684   0.154015  -0.191145   0.159633  -0.359741
   53  H 13  S   -0.232616   0.184682   0.262357  -0.196036   0.562753
   54  H 14  S    0.405722  -0.136344  -0.174825   0.143854   0.036120
   55  H 15  S   -0.200821   0.449781   0.184384  -0.090290   0.240683
   56  H 16  S   -0.160567   0.519031   0.077431   0.308070   0.142583
   57  H 17  S   -0.319162   0.294057  -0.054919   0.601753   0.012029
   58  H 18  S   -0.384361  -0.091439  -0.441272   0.356521   0.103207
   59  H 19  S   -0.268023  -0.043366  -0.655276   0.135861   0.224096
   60  H 20  S    0.095443   0.110803  -0.542948  -0.077091   0.527484

                     46         47         48         49         50
                    0.6749     0.6872     0.6919     0.7024     0.7183
                     A          A          A          A          A   
    1  C  1  S   -0.000549  -0.027685   0.068867   0.188123   0.009648
    2  C  1  S    0.002193   0.157531  -0.455904  -1.207230  -0.074818
    3  C  1  X    0.094249  -0.033160  -0.092062  -0.184203  -0.094162
    4  C  1  Y   -0.021490   0.048009  -0.277906  -0.077005   0.020220
    5  C  1  Z    0.087872   0.145310  -0.006871   0.439929   0.210381
    6  C  2  S    0.022286   0.129705   0.026050  -0.068415   0.084129
    7  C  2  S   -0.136819  -0.817074  -0.151742   0.389307  -0.546461
    8  C  2  X   -0.215750   0.119303   0.082609  -0.000209   0.124832
    9  C  2  Y    0.098645   0.128155  -0.095207   0.049018   0.080120
   10  C  2  Z   -0.132633  -0.254826  -0.277539  -0.033413  -0.143402
   11  C  3  S   -0.088534  -0.042752  -0.020974   0.060297  -0.020057
   12  C  3  S    0.502459   0.244826   0.125585  -0.371078   0.122071
   13  C  3  X    0.751873   0.076661   0.223611   0.044675  -0.218192
   14  C  3  Y   -0.125211  -0.333045   0.155698  -0.117960  -0.327317
   15  C  3  Z    0.462415  -0.286121  -0.556186   0.217498  -0.167456
   16  C  4  S    0.124199  -0.032166   0.093226  -0.030481  -0.034180
   17  C  4  S   -0.719908   0.204092  -0.556131   0.180446   0.212190
   18  C  4  X    0.539953  -0.094704  -0.458763   0.104658  -0.205448
   19  C  4  Y   -0.002647  -0.134645   0.211404  -0.076920   0.046814
   20  C  4  Z    0.599486   0.273803  -0.132105   0.020000   0.080874
   21  C  5  S   -0.044604   0.039287  -0.133080   0.044200  -0.012910
   22  C  5  S    0.270906  -0.251111   0.832721  -0.274173   0.054964
   23  C  5  X   -0.157555  -0.093437  -0.265697   0.073895   0.141918
   24  C  5  Y   -0.042037   0.005971  -0.022111   0.005236   0.193029
   25  C  5  Z   -0.183657   0.003657   0.198642  -0.033586  -0.086999
   26  C  6  S    0.041775  -0.083907   0.024901  -0.024801   0.133399
   27  C  6  S   -0.256984   0.522219  -0.139857   0.151050  -0.855978
   28  C  6  X    0.037748   0.043332   0.073013   0.001952  -0.330028
   29  C  6  Y   -0.048689   0.138187   0.069622  -0.000321   0.051325
   30  C  6  Z    0.130168  -0.011379  -0.078059  -0.002619   0.160927
   31  C  7  S   -0.037674   0.102059   0.008719   0.022161  -0.135499
   32  C  7  S    0.234717  -0.628820  -0.059439  -0.133923   0.873966
   33  C  7  X   -0.062523  -0.074423   0.047844  -0.016232   0.168687
   34  C  7  Y   -0.077086   0.100410  -0.023963   0.017965  -0.119063
   35  C  7  Z   -0.037957   0.007458  -0.013371   0.013793  -0.071672
   36  C  8  S    0.012300  -0.118176  -0.010839  -0.022036   0.030701
   37  C  8  S   -0.077297   0.731361   0.074833   0.139356  -0.180052
   38  C  8  X    0.002910  -0.077110  -0.010400  -0.004729  -0.082566
   39  C  8  Y    0.019009   0.124585  -0.044494   0.028362   0.284092
   40  C  8  Z    0.092494   0.123365  -0.021704   0.026299   0.009655
   41  C  9  S   -0.014795   0.034733  -0.037299   0.019764  -0.020853
   42  C  9  S    0.093141  -0.204783   0.221900  -0.116624   0.132663
   43  C  9  X   -0.176647  -0.359395  -0.079447  -0.034293   0.048094
   44  C  9  Y    0.059741  -0.122166  -0.167380   0.005658   0.102701
   45  C  9  Z   -0.073656   0.200446   0.123416   0.020226   0.072528
   46  O 10  S    0.009113   0.001848   0.011495  -0.003954   0.015593
   47  O 10  S   -0.063141  -0.019682  -0.075708   0.025275  -0.108605
   48  O 10  X    0.041655   0.087792  -0.008777   0.018297  -0.068946
   49  O 10  Y    0.036172   0.082560   0.125125  -0.020812   0.080961
   50  O 10  Z    0.099190  -0.005055   0.008336  -0.018298   0.085896
   51  H 11  S    0.036175   0.035920   0.036045   0.862474   0.185048
   52  H 12  S   -0.005604  -0.101209   0.504185   0.777853   0.071279
   53  H 13  S    0.097817   0.590010   0.059976  -0.189924   0.381048
   54  H 14  S    0.016443   0.075600  -0.414655   0.309848   0.158537
   55  H 15  S    0.146692   0.020657   0.391069   0.096620  -0.213425
   56  H 16  S    0.055910  -0.399811   0.231748  -0.091049  -0.220206
   57  H 17  S   -0.175317   0.116742  -0.543210   0.170592   0.163944
   58  H 18  S    0.117127  -0.210510   0.074011  -0.085546   0.691018
   59  H 19  S   -0.085867   0.382384  -0.015404   0.086907  -0.571942
   60  H 20  S    0.040475  -0.455029   0.005606  -0.092991  -0.123278

                     51         52         53         54         55
                    0.7406     0.7831     0.7977     0.8486     0.9145
                     A          A          A          A          A   
    1  C  1  S   -0.044052   0.006524  -0.020222   0.001195  -0.005163
    2  C  1  S    0.301648  -0.041044   0.137043  -0.007053   0.039800
    3  C  1  X    0.094667   0.102543  -0.024268   0.004243  -0.022151
    4  C  1  Y    0.113202  -0.106636  -0.049366   0.123996   0.041403
    5  C  1  Z   -0.032725  -0.325852   0.065656   0.069395   0.078455
    6  C  2  S   -0.026523  -0.074851   0.038251  -0.002362   0.007341
    7  C  2  S    0.163507   0.504045  -0.258304   0.014593  -0.055396
    8  C  2  X   -0.149764  -0.036196  -0.025375  -0.005063  -0.022007
    9  C  2  Y    0.006508  -0.029625   0.027441  -0.070012  -0.054215
   10  C  2  Z    0.156703   0.020113  -0.005406   0.006735   0.031887
   11  C  3  S    0.155989   0.081046   0.079302  -0.019195  -0.010866
   12  C  3  S   -0.992699  -0.509078  -0.518882   0.128643   0.071977
   13  C  3  X    0.268819   0.448496   0.171971  -0.134737  -0.077625
   14  C  3  Y   -0.396905   0.393721  -0.446372   0.013247  -0.034055
   15  C  3  Z    0.094727  -0.254489  -0.139926   0.058723   0.026501
   16  C  4  S    0.048065  -0.078537  -0.084826  -0.026651   0.045553
   17  C  4  S   -0.315920   0.501449   0.529684   0.168500  -0.299114
   18  C  4  X   -0.091153  -0.173749  -0.107346   0.285459   0.092695
   19  C  4  Y    0.087865  -0.404309   0.553839  -0.057164   0.148776
   20  C  4  Z   -0.388061   0.331055   0.269359  -0.192876  -0.302563
   21  C  5  S   -0.041328   0.075190  -0.044964  -0.024861   0.050051
   22  C  5  S    0.266384  -0.506962   0.305620   0.174584  -0.375058
   23  C  5  X    0.076448   0.027464  -0.175771   0.104870  -0.377659
   24  C  5  Y    0.054879  -0.043282  -0.136870  -0.665279   0.206654
   25  C  5  Z    0.059425  -0.007819   0.062095   0.034839   0.232931
   26  C  6  S    0.042800   0.000565  -0.030147   0.049498  -0.057627
   27  C  6  S   -0.279255  -0.002570   0.208254  -0.332518   0.436841
   28  C  6  X    0.012423  -0.331866   0.130114  -0.192603  -0.144910
   29  C  6  Y    0.017262   0.065937   0.063756   0.315384  -0.551127
   30  C  6  Z   -0.045086   0.157181  -0.077057   0.047574   0.091195
   31  C  7  S    0.000161  -0.027541   0.005860   0.045460  -0.077257
   32  C  7  S    0.002922   0.192167  -0.041674  -0.306173   0.570185
   33  C  7  X    0.113005  -0.082843  -0.163650  -0.412736  -0.390830
   34  C  7  Y   -0.176491   0.053414   0.280208  -0.165571   0.198836
   35  C  7  Z   -0.075675   0.088981   0.143102   0.340924   0.344699
   36  C  8  S   -0.086029   0.013445   0.099377  -0.012651   0.052255
   37  C  8  S    0.567062  -0.092905  -0.673213   0.085251  -0.394869
   38  C  8  X   -0.067084  -0.025067   0.002303   0.360332  -0.318579
   39  C  8  Y    0.129444   0.243005  -0.153640   0.503890   0.406036
   40  C  8  Z    0.063079  -0.006498  -0.084627  -0.310118   0.161206
   41  C  9  S    0.027605  -0.045284   0.017551  -0.043723  -0.065390
   42  C  9  S   -0.163414   0.292323  -0.104738   0.287633   0.434696
   43  C  9  X   -0.202088  -0.084191   0.486971   0.199568  -0.229864
   44  C  9  Y   -0.229608   0.061934   0.531653   0.198710   0.373712
   45  C  9  Z    0.243016   0.091423  -0.107914  -0.060399   0.526177
   46  O 10  S   -0.002261   0.023545   0.006901   0.015541   0.071037
   47  O 10  S    0.014090  -0.166576  -0.052075  -0.109332  -0.521396
   48  O 10  X    0.055352  -0.055189  -0.158942  -0.101212  -0.180744
   49  O 10  Y    0.069726   0.140054  -0.077749   0.042352   0.412516
   50  O 10  Z   -0.083093   0.136787   0.091144   0.104059   0.347786
   51  H 11  S   -0.090669  -0.251864  -0.048366   0.112983   0.052540
   52  H 12  S   -0.301878   0.023480  -0.027310  -0.075882  -0.026940
   53  H 13  S   -0.155622  -0.267515   0.116266  -0.047238  -0.027972
   54  H 14  S    0.807171  -0.173708   0.527243  -0.043932  -0.008035
   55  H 15  S    0.500294   0.738241   0.323416  -0.160540  -0.099598
   56  H 16  S    0.386635  -0.627247  -0.356756   0.165716   0.334897
   57  H 17  S   -0.085920   0.204817  -0.271311  -0.562576   0.177195
   58  H 18  S    0.125816   0.256501  -0.132171   0.424743  -0.369447
   59  H 19  S   -0.091787   0.012540   0.156036   0.561211   0.161646
   60  H 20  S   -0.345845  -0.151987   0.392753  -0.546345  -0.065020

                     56         57         58         59         60
                    0.9412     0.9768     1.0246     1.0500     1.1409
                     A          A          A          A          A   
    1  C  1  S   -0.008984  -0.005824   0.017944  -0.110855   0.006866
    2  C  1  S    0.063158   0.046067  -0.143479   0.895234  -0.057373
    3  C  1  X   -0.172859  -0.057331   0.066099  -0.476441   0.025320
    4  C  1  Y   -0.874585  -0.184664  -0.011771  -0.255631   0.009322
    5  C  1  Z   -0.245673  -0.005857  -0.173274   0.972464  -0.058839
    6  C  2  S    0.016295   0.003570  -0.019779   0.104493  -0.006337
    7  C  2  S   -0.141863  -0.038498   0.155914  -0.851338   0.050152
    8  C  2  X    0.131327   0.008216   0.088685  -0.500001   0.040448
    9  C  2  Y    0.837795   0.179195   0.116329  -0.316003   0.034028
   10  C  2  Z    0.323662   0.129649  -0.121990   1.009940  -0.058185
   11  C  3  S    0.055924   0.009225   0.002195   0.011103  -0.001959
   12  C  3  S   -0.366029  -0.062466  -0.008778  -0.070809   0.013229
   13  C  3  X   -0.103855  -0.054330  -0.083616   0.119661  -0.042418
   14  C  3  Y    0.114336   0.049905   0.019083   0.316792  -0.048148
   15  C  3  Z    0.374147   0.143736   0.058855  -0.110750   0.042717
   16  C  4  S    0.004546  -0.002938  -0.032560  -0.011376  -0.016744
   17  C  4  S   -0.032305   0.011913   0.219824   0.076151   0.111891
   18  C  4  X    0.028572   0.201196   0.201714  -0.008849   0.215543
   19  C  4  Y   -0.016286  -0.057043  -0.234955  -0.099941   0.156208
   20  C  4  Z   -0.069536  -0.172184  -0.141992   0.001089  -0.117485
   21  C  5  S    0.001175   0.036376  -0.052777  -0.003432   0.069289
   22  C  5  S   -0.005641  -0.275103   0.448646   0.029800  -0.571353
   23  C  5  X    0.043914  -0.288090   0.727604   0.106981  -0.507837
   24  C  5  Y    0.072730  -0.581978  -0.151660  -0.026492  -0.309104
   25  C  5  Z   -0.022465   0.237197  -0.338631  -0.058959   0.299448
   26  C  6  S    0.016122  -0.074576   0.048133   0.007759  -0.058745
   27  C  6  S   -0.112116   0.554263  -0.416236  -0.066543   0.480565
   28  C  6  X    0.038357  -0.389836   0.555335   0.047041  -0.692149
   29  C  6  Y   -0.164781   0.489565   0.525175   0.089442   0.095434
   30  C  6  Z   -0.003524   0.134538  -0.360981  -0.029412   0.381707
   31  C  7  S    0.007381  -0.043502   0.032188   0.013711   0.069703
   32  C  7  S   -0.061443   0.371822  -0.231157  -0.106057  -0.576519
   33  C  7  X   -0.084880   0.090203   0.103381   0.074654   0.593465
   34  C  7  Y   -0.231638   0.830594   0.346786  -0.020168  -0.475364
   35  C  7  Z    0.076090  -0.074309  -0.100124  -0.055712  -0.413006
   36  C  8  S   -0.011094   0.045111   0.000201  -0.009084  -0.071709
   37  C  8  S    0.090589  -0.371603  -0.015964   0.071648   0.596408
   38  C  8  X    0.161642  -0.540955  -0.263827   0.006083   0.241465
   39  C  8  Y    0.045996   0.258662  -0.354891  -0.130590  -0.769524
   40  C  8  Z   -0.127130   0.439894   0.178950  -0.010369  -0.225188
   41  C  9  S   -0.015022   0.061027  -0.038885  -0.011679  -0.015310
   42  C  9  S    0.102047  -0.412454   0.267039   0.080730   0.109980
   43  C  9  X    0.055507  -0.109121  -0.381491  -0.067505  -0.098171
   44  C  9  Y    0.036175  -0.302191   0.412599   0.069636   0.463644
   45  C  9  Z   -0.021522  -0.001340   0.523023   0.088618   0.291050
   46  O 10  S    0.003882  -0.029822   0.064254   0.011986   0.040325
   47  O 10  S   -0.027037   0.218334  -0.486314  -0.091081  -0.313850
   48  O 10  X   -0.021286   0.103124  -0.122814  -0.023512  -0.106236
   49  O 10  Y    0.012016  -0.126682   0.370138   0.070322   0.203491
   50  O 10  Z    0.023768  -0.183618   0.329202   0.060990   0.218511
   51  H 11  S   -0.595732  -0.107453  -0.050130   0.103669  -0.007560
   52  H 12  S    0.584147   0.120285   0.020254   0.103385  -0.000169
   53  H 13  S    0.615094   0.123760   0.060433  -0.143078   0.020413
   54  H 14  S    0.127721   0.028427  -0.003679  -0.207909   0.026292
   55  H 15  S   -0.058611  -0.056463  -0.057485   0.155349  -0.042880
   56  H 16  S    0.057028   0.148255   0.026204  -0.045104   0.091417
   57  H 17  S    0.052703  -0.384725  -0.069984   0.000703  -0.127815
   58  H 18  S   -0.067087   0.269571   0.085219   0.038368   0.238271
   59  H 19  S    0.128150  -0.292809  -0.058350  -0.025975  -0.227098
   60  H 20  S   -0.113739   0.112788   0.297597   0.056815   0.210247

 THE NUCLEAR REPULSION AT THE IRC POINT IS      495.1979812288

 * * * IRC RESTART INFORMATION * * *
 COORDINATES FOR $DATA AND ENTIRE $IRC GROUP FOLLOW

 COORDINATES OF SYMMETRY UNIQUE ATOMS (ANGS)
   ATOM   CHARGE       X              Y              Z
 ------------------------------------------------------------
 C           6.0   1.3542693288  -1.0541778414  -2.3908265025
 C           6.0   0.7972471739  -1.3608000096  -1.2467119514
 C           6.0   0.6492361165  -0.3970401202  -0.0721821803
 C           6.0   1.8112476286  -0.4981060362   0.9992734101
 C           6.0   2.8339609953  -1.5724442927   0.6372136940
 C           6.0   3.9560334631  -1.2885614024   0.0105910375
 C           6.0   4.3120849166   0.1140803244  -0.3290765379
 C           6.0   3.6400641551   1.1317838165   0.1748321034
 C           6.0   2.4908424656   0.8917677242   1.1287015786
 O           8.0   2.1109425851   1.7331351164   1.9301229537
 H           1.0   1.4508263284  -1.7740908078  -3.1916536067
 H           1.0   1.7457400109  -0.0667847066  -2.5951412799
 H           1.0   0.4235802970  -2.3650279856  -1.0792851717
 H           1.0   0.6102633162   0.6202126196  -0.4552914381
 H           1.0  -0.2981890048  -0.5854076831   0.4285177326
 H           1.0   1.3628875710  -0.7397864064   1.9623541308
 H           1.0   2.5705444279  -2.5950505148   0.8804849507
 H           1.0   4.6548015433  -2.0646652617  -0.2732952984
 H           1.0   5.1629751009   0.2715958421  -0.9823510928
 H           1.0   3.9148717485   2.1606232252  -0.0193501196
 $IRC   PACE=GS2        STRIDE= 0.10000   NPOINT=??
        STOTAL=  9.998202   NEXTPT= 101
        NPRT= 0   NPUN= 0   SADDLE=.FALSE.
        GA(   1)= 1.941822932E-03,-3.670978551E-04, 7.809887541E-04
        GA(   4)=-1.416336744E-04, 2.867679722E-04,-5.212839188E-05
        GA(   7)=-9.446342414E-05, 2.227949939E-04, 3.922637506E-06
        GA(  10)=-2.024240953E-04, 2.951371370E-05, 1.304700123E-04
        GA(  13)=-2.162357696E-04, 1.567911044E-05, 1.185220471E-04
        GA(  16)=-4.894169725E-04, 3.772877983E-05,-3.879343545E-04
        GA(  19)=-8.448099889E-04, 2.599665631E-05,-8.674343055E-04
        GA(  22)=-6.559966933E-04, 3.910973812E-05,-5.894095999E-04
        GA(  25)=-6.247734046E-05,-4.812010762E-05, 1.313433518E-04
        GA(  28)= 7.060370297E-04,-2.971000460E-04, 7.858411927E-04
        GA(  31)= 1.596642612E-04,-2.551136389E-05, 6.215563968E-05
        GA(  34)= 3.358134731E-04,-4.978177396E-05, 1.239223170E-04
        GA(  37)=-1.641052304E-04, 6.813911153E-05,-6.813659417E-05
        GA(  40)= 6.831561938E-06, 1.958085671E-05, 1.014579066E-05
        GA(  43)=-2.020939496E-05, 2.678562520E-05,-3.172559962E-06
        GA(  46)=-1.984638391E-05, 4.637162015E-06, 1.444985966E-06
        GA(  49)=-1.447580333E-08, 9.757080717E-06, 3.529025368E-05
        GA(  52)=-3.933326526E-05, 5.177009274E-06,-4.163084740E-05
        GA(  55)=-1.223640763E-04,-1.964611052E-07,-1.034744103E-04
        GA(  58)=-7.683845895E-05,-3.860213740E-06,-7.072592185E-05
 $END   
 A GS2 RESTART ALSO REQUIRES THE UPDATED $HESS GROUP FROM THE PUNCH FILE
 ......DONE WITH THIS PORTION OF THE IRC......
 STEP CPU TIME =     0.01 TOTAL CPU TIME =        219.6 (      3.7 MIN)
 TOTAL WALL CLOCK TIME=        234.9 SECONDS, CPU UTILIZATION IS    93.47%

   1 warning(s) detected.
     A line exceeding 80 characters begins with " $irc npoint=100 sad".
 There may be a problem in your input file.

               580000  WORDS OF DYNAMIC MEMORY USED
 EXECUTION OF GAMESS TERMINATED NORMALLY Fri Nov 12 21:29:13 2021
 DDI: 263640 bytes (0.3 MB / 0 MWords) used by master data server.

 ----------------------------------------
 CPU timing information for all processes
 ========================================
 0: 202.458 + 17.143 = 219.601
 ----------------------------------------
 ddikick.x: exited gracefully.
----- accounting info -----
Files used on the master node chemcompute-node-0.novalocal were:
-rw-r--r--. 1 chemcomp chemcomp    60541 Nov 12 21:25 /scratch/305555/341416.F05
-rw-rw-r--. 1 chemcomp chemcomp 17281536 Nov 12 21:29 /scratch/305555/341416.F08
-rw-rw-r--. 1 chemcomp chemcomp 52428800 Nov 12 21:29 /scratch/305555/341416.F10
Fri Nov 12 21:29:16 UTC 2021
0.136u 0.091s 3:58.92 0.0%	0+0k 120+328io 0pf+0w
Finishing Up...
Looking for IR data...
Looking for Raman data...
vibramans not found
Looking for thermodynamics data...
Looking for UV-Vis data...
305555
