----- GAMESS execution script 'rungms' -----
This job is running on host chemcompute-node-0.novalocal
under operating system Linux at Sat Nov 13 16:40:56 UTC 2021
SLURM has assigned the following compute nodes to this run:
chemcompute-node-0
Available scratch disk space (Kbyte units) at beginning of the job is
Filesystem     1K-blocks     Used Available Use% Mounted on
/dev/sda1       62903276 16761616  46141660  27% /
GAMESS temporary binary files will be written to /scratch/306036
GAMESS supplementary output files will be written to /data/slurm/341938
Copying input file 341938.inp to your run's scratch directory...
The generated host list is
chemcompute-node-0.novalocal

 Distributed Data Interface kickoff program.
 Initiating 1 compute processes on 1 nodes to run the following command:
 /data/gamess-2019R1-ddi/gamess.00.x 341938 

          ******************************************************
          *         GAMESS VERSION = 30 JUN 2019 (R1)          *
          *             FROM IOWA STATE UNIVERSITY             *
          * M.W.SCHMIDT, K.K.BALDRIDGE, J.A.BOATZ, S.T.ELBERT, *
          *   M.S.GORDON, J.H.JENSEN, S.KOSEKI, N.MATSUNAGA,   *
          *          K.A.NGUYEN, S.J.SU, T.L.WINDUS,           *
          *       TOGETHER WITH M.DUPUIS, J.A.MONTGOMERY       *
          *         J.COMPUT.CHEM.  14, 1347-1363(1993)        *
          **************** 64 BIT LINUX VERSION ****************

  SINCE 1993, STUDENTS AND POSTDOCS WORKING AT IOWA STATE UNIVERSITY
  AND ALSO IN THEIR VARIOUS JOBS AFTER LEAVING ISU HAVE MADE IMPORTANT
  CONTRIBUTIONS TO THE CODE:
     IVANA ADAMOVIC, CHRISTINE AIKENS, YURI ALEXEEV, POOJA ARORA,
     ANDREY ASADCHEV, ROB BELL, PRADIPTA BANDYOPADHYAY, JONATHAN BENTZ,
     COLLEEN BERTONI, BRETT BODE, KURT BRORSEN, CALEB CARLIN, GALINA CHABAN,
     WEI CHEN, CHEOL HO CHOI, PAUL DAY, ALBERT DEFUSCO, NUWAN DESILVA,
     TIM DUDLEY, DMITRI FEDOROV, ALEX FINDLATER, GRAHAM FLETCHER, 
     MARK FREITAG, KURT GLAESEMANN, ANASTASIA GUNINA,
     DAN KEMP, GRANT MERRILL, NORIYUKI MINEZAWA, JONATHAN MULLIN,
     TAKESHI NAGATA, SEAN NEDD, HEATHER NETZLOFF, BOSILJKA NJEGIC, RYAN OLSON,
     MIKE PAK, BUU PHAM,
     SPENCER PRUITT, LUKE ROSKOP, JIM SHOEMAKER, LYUDMILA SLIPCHENKO,
     TONY SMITH, SAROM SOK LEANG, JIE SONG, TETSUYA TAKETSUGU, SIMON WEBB,
     PENG XU, SOOHAENG YOO, FEDERICO ZAHARIEV

  ADDITIONAL CODE HAS BEEN PROVIDED BY COLLABORATORS IN OTHER GROUPS:
     IOWA STATE UNIVERSITY:
          JOE IVANIC, AARON WEST, LAIMUTIS BYTAUTAS, KLAUS RUEDENBERG
     UNIVERSITY OF TOKYO: KIMIHIKO HIRAO, TAKAHITO NAKAJIMA,
          TAKAO TSUNEDA, MUNEAKI KAMIYA, SUSUMU YANAGISAWA,
          KIYOSHI YAGI, MAHITO CHIBA, SEIKEN TOKURA, NAOAKI KAWAKAMI
     UNIVERSITY OF AARHUS: FRANK JENSEN
     UNIVERSITY OF IOWA: VISVALDAS KAIRYS, HUI LI
     NATIONAL INST. OF STANDARDS AND TECHNOLOGY: WALT STEVENS, DAVID GARMER
     UNIVERSITY OF PISA: BENEDETTA MENNUCCI, JACOPO TOMASI
     UNIVERSITY OF MEMPHIS: HENRY KURTZ, PRAKASHAN KORAMBATH
     UNIVERSITY OF ALBERTA: TOBY ZENG, MARIUSZ KLOBUKOWSKI
     UNIVERSITY OF NEW ENGLAND: MARK SPACKMAN
     MIE UNIVERSITY: HIROAKI UMEDA
     NAT. INST. OF ADVANCED INDUSTRIAL SCIENCE AND TECHNOLOGY: KAZUO KITAURA
     MICHIGAN STATE UNIVERSITY:
          KAROL KOWALSKI, MARTA WLOCH, JEFFREY GOUR, JESSE LUTZ,
          WEI LI, JUN SHEN, J. EMILIANO DEUSTUA, PIOTR PIECUCH
     UNIVERSITY OF MINNESOTA:
          YINAN SHU
     UNIVERSITY OF SILESIA: MONIKA MUSIAL, STANISLAW KUCHARSKI
     FACULTES UNIVERSITAIRES NOTRE-DAME DE LA PAIX:
          OLIVIER QUINET, BENOIT CHAMPAGNE
     UNIVERSITY OF CALIFORNIA - SANTA BARBARA: BERNARD KIRTMAN
     INSTITUTE FOR MOLECULAR SCIENCE:
          KAZUYA ISHIMURA, MICHIO KATOUDA, AND SHIGERU NAGASE
     UNIVERSITY OF NOTRE DAME: ANNA POMOGAEVA, DAN CHIPMAN
     KYUSHU UNIVERSITY:
          HARUYUKI NAKANO,
          FENG LONG GU, JACEK KORCHOWIEC, MARCIN MAKOWSKI, AND YURIKO AOKI,
          HIROTOSHI MORI AND EISAKU MIYOSHI
     PENNSYLVANIA STATE UNIVERSITY:
          TZVETELIN IORDANOV, CHET SWALINA, JONATHAN SKONE,
          SHARON HAMMES-SCHIFFER
     WASEDA UNIVERSITY:
          MASATO KOBAYASHI, TOMOKO AKAMA, TSUGUKI TOUMA,
          TAKESHI YOSHIKAWA, YASUHIRO IKABATA, JUNJI SEINO,
          YUYA NAKAJIMA, HIROMI NAKAI
     NANJING UNIVERSITY: SHUHUA LI
     UNIVERSITY OF NEBRASKA:
          PEIFENG SU, DEJUN SI, NANDUN THELLAMUREGE, YALI WANG, HUI LI
     UNIVERSITY OF ZURICH: ROBERTO PEVERATI, KIM BALDRIDGE
     N. COPERNICUS UNIVERSITY AND JACKSON STATE UNIVERSITY:
          MARIA BARYSZ
     UNIVERSITY OF COPENHAGEN: Jimmy Kromann, CASPER STEINMANN
     TOKYO INSTITUTE OF TECHNOLOGY: HIROYA NAKATA
     NAGOYA UNIVERSITY: YOSHIO NISHIMOTO, STEPHAN IRLE
     MOSCOW STATE UNIVERSITY: VLADIMIR MIRONOV
     A.N.NESMEYANOV INSTITUTE OF ORGANOELEMENT COMPOUNDS OF RUSSIAN ACADEMY OF SCIENCES:
          IGOR S. GERASIMOV

 EXECUTION OF GAMESS BEGUN Sat Nov 13 16:40:56 2021

            ECHO OF THE FIRST FEW INPUT CARDS -
 INPUT CARD>!File created by the GAMESS Input Deck Generator Plugin for Avogadro            
 INPUT CARD> $BASIS GBASIS=STO NGAUSS=3 $END                                                
 INPUT CARD> $CONTRL SCFTYP=RHF RUNTYP=OPTIMIZE NZVAR=1 mult=1  ICHARG=0 $END               
 INPUT CARD> $STATPT hssend=.t. OPTTOL=0.0005 NSTEP=50 $END                                 
 INPUT CARD> $STATPT HESS=calc ihrep=5 $END                                                 
 INPUT CARD> $FORCE nvib=2 $END                                                             
 INPUT CARD> $ZMAT DLC=.t. auto=.t. nonvdw(1)=6,16,9,16 $END                                
 INPUT CARD> $ZMAT IFZMAT(1)=1,6,16,1,9,16 fvalue(1)=3.97,4.01 $END                         
 INPUT CARD>                                                                                
 INPUT CARD> $DATA                                                                          
 INPUT CARD>Title                                                                           
 INPUT CARD>C1                                                                              
 INPUT CARD>C     6.0    -1.89314     1.98358     0.02283                                   
 INPUT CARD>C     6.0    -3.04290     0.97590     0.17338                                   
 INPUT CARD>C     6.0    -0.63524     1.12069    -0.15928                                   
 INPUT CARD>H     1.0    -1.86127     2.61376     0.93836                                   
 INPUT CARD>H     1.0    -1.99919     2.63608    -0.87123                                   
 INPUT CARD>C     6.0    -1.05926    -0.27147     0.27995                                   
 INPUT CARD>H     1.0     0.28737     1.52936     0.30389                                   
 INPUT CARD>H     1.0    -0.44727     1.03991    -1.25553                                   
 INPUT CARD>C     6.0    -2.46238    -0.34233    -0.31256                                   
 INPUT CARD>H     1.0    -4.00744     1.29127    -0.27710                                   
 INPUT CARD>H     1.0    -3.21781     0.83670     1.26592                                   
 INPUT CARD>H     1.0    -2.39999    -0.33832    -1.42499                                   
 INPUT CARD>H     1.0    -3.04844    -1.22829     0.01179                                   
 INPUT CARD>H     1.0    -1.11950    -0.31298     1.39174                                   
 INPUT CARD>H     1.0    -0.37572    -1.07214    -0.07361                                   
 INPUT CARD>Br    35.0    -1.62485    -4.21713     0.02834                                  
 INPUT CARD>H     1.0    -0.17086    -3.74496     0.04417                                   
 INPUT CARD> $END                                                                           
    1000000 WORDS OF MEMORY AVAILABLE

     BASIS OPTIONS
     -------------
     GBASIS=STO          IGAUSS=       3      POLAR=NONE    
     NDFUNC=       0     NFFUNC=       0     DIFFSP=       F
     NPFUNC=       0      DIFFS=       F     BASNAM=        


     RUN TITLE
     ---------
 Title                                                                           

 THE POINT GROUP OF THE MOLECULE IS C1      
 THE ORDER OF THE PRINCIPAL AXIS IS     0

 ATOM      ATOMIC                      COORDINATES (BOHR)
           CHARGE         X                   Y                   Z
 C           6.0    -3.5775158564        3.7484226747        0.0431424443
 C           6.0    -5.7502472080        1.8441835914        0.3276406918
 C           6.0    -1.2004295364        2.1177970172       -0.3009955553
 H           1.0    -3.5172902892        4.9392901977        1.7732432778
 H           1.0    -3.7779212974        4.9814688817       -1.6463859723
 C           6.0    -2.0017111498       -0.5130039139        0.5290287903
 H           1.0     0.5430505571        2.8900713366        0.5742688304
 H           1.0    -0.8452177425        1.9651449519       -2.3726076694
 C           6.0    -4.6532234776       -0.6469098974       -0.5906527547
 H           1.0    -7.5729635122        2.4401464762       -0.5236430712
 H           1.0    -6.0807791806        1.5811337339        2.3922419224
 H           1.0    -4.5353234733       -0.6393320962       -2.6928406352
 H           1.0    -5.7607162900       -2.3211315335        0.0222798694
 H           1.0    -2.1155482433       -0.5914464396        2.6300072462
 H           1.0    -0.7100078481       -2.0260508205       -0.1391027300
 BR         35.0    -3.0705212711       -7.9692201546        0.0535548345
 H           1.0    -0.3228785823       -7.0769482350        0.0834691969

          INTERNUCLEAR DISTANCES (ANGS.)
          ------------------------------

                1 C          2 C          3 C          4 H          5 H     

   1 C       0.0000000    1.5362397 *  1.5362473 *  1.1119072 *  1.1119110 *
   2 C       1.5362397 *  0.0000000    2.4348416 *  2.1596364 *  2.2218772 *
   3 C       1.5362473 *  2.4348416 *  0.0000000    2.2219859 *  2.1595461 *
   4 H       1.1119072 *  2.1596364 *  2.2219859 *  0.0000000    1.8149755 *
   5 H       1.1119110 *  2.2218772 *  2.1595461 *  1.8149755 *  0.0000000  
   6 C       2.4179986 *  2.3456591 *  1.5201399 *  3.0661500    3.2653531  
   7 H       2.2449798 *  3.3784685    1.1102913 *  2.4890017 *  2.7989449 *
   8 H       2.1483150 *  2.9636424 *  1.1151781 *  3.0478768    2.2591815 *
   9 C       2.4179284 *  1.5201551 *  2.3457116 *  3.2656702    3.0655478  
  10 H       2.2448866 *  1.1102828 *  3.3785665    2.7986369 *  2.4888898 *
  11 H       2.1483382 *  1.1151743 *  2.9633618 *  2.2595218 *  3.0479851  
  12 H       2.7828581 *  2.1668627 *  2.6163093 *  3.8197407    3.0519414  
  13 H       3.4133486    2.2101121 *  3.3720181    4.1266515    4.1004884  
  14 H       2.7832753 *  2.6163104 *  2.1669288 *  3.0531268    3.8199270  
  15 H       3.4131055    3.3718424    2.2097949 *  4.1008293    4.1258633  
  16 BR      6.2065139    5.3851149    5.4320209    6.8952947    6.9221271  
  17 H       5.9818788    5.5273708    4.8919925    6.6400589    6.7006283  

                6 C          7 H          8 H          9 C         10 H     

   1 C       2.4179986 *  2.2449798 *  2.1483150 *  2.4179284 *  2.2448866 *
   2 C       2.3456591 *  3.3784685    2.9636424 *  1.5201551 *  1.1102828 *
   3 C       1.5201399 *  1.1102913 *  1.1151781 *  2.3457116 *  3.3785665  
   4 H       3.0661500    2.4890017 *  3.0478768    3.2656702    2.7986369 *
   5 H       3.2653531    2.7989449 *  2.2591815 *  3.0655478    2.4888898 *
   6 C       0.0000000    2.2487717 *  2.1099640 *  1.5247410 *  3.3829316  
   7 H       2.2487717 *  0.0000000    1.7919397 *  3.3829512    4.3404642  
   8 H       2.1099640 *  1.7919397 *  0.0000000    2.6192457 *  3.7007185  
   9 C       1.5247410 *  3.3829512    2.6192457 *  0.0000000    2.2488034 *
  10 H       3.3829316    4.3404642    3.7007185    2.2488034 *  0.0000000  
  11 H       2.6190677 *  3.7002117    3.7516525    2.1100676 *  1.7919431 *
  12 H       2.1699876 *  3.7012374    2.3961114 *  1.1141854 *  2.5606856 *
  13 H       2.2235673 *  4.3379240    3.6765359    1.1106729 *  2.7113320 *
  14 H       1.1141943 *  2.5606479 *  3.0479900    2.1699831 *  3.7011947  
  15 H       1.1105422 *  2.7110878 *  2.4213239 *  2.2234814 *  4.3377996  
  16 BR      3.9939244    6.0625622    5.5381844    3.9789125    6.0093676  
  17 H       3.5930460    5.3005548    4.9659444    4.1177920    6.3392565  

               11 H         12 H         13 H         14 H         15 H     

   1 C       2.1483382 *  2.7828581 *  3.4133486    2.7832753 *  3.4131055  
   2 C       1.1151743 *  2.1668627 *  2.2101121 *  2.6163104 *  3.3718424  
   3 C       2.9633618 *  2.6163093 *  3.3720181    2.1669288 *  2.2097949 *
   4 H       2.2595218 *  3.8197407    4.1266515    3.0531268    4.1008293  
   5 H       3.0479851    3.0519414    4.1004884    3.8199270    4.1258633  
   6 C       2.6190677 *  2.1699876 *  2.2235673 *  1.1141943 *  1.1105422 *
   7 H       3.7002117    3.7012374    4.3379240    2.5606479 *  2.7110878 *
   8 H       3.7516525    2.3961114 *  3.6765359    3.0479900    2.4213239 *
   9 C       2.1100676 *  1.1141854 *  1.1106729 *  2.1699831 *  2.2234814 *
  10 H       1.7919431 *  2.5606856 *  2.7113320 *  3.7011947    4.3377996  
  11 H       0.0000000    3.0480319    2.4219232 *  2.3959340 *  3.6763414  
  12 H       3.0480319    0.0000000    1.8102129 *  3.0942309    2.5421229 *
  13 H       2.4219232 *  1.8102129 *  0.0000000    2.5422163 *  2.6786392 *
  14 H       2.3959340 *  3.0942309    2.5422163 *  0.0000000    1.8101887 *
  15 H       3.6763414    2.5421229 *  2.6786392 *  1.8101887 *  0.0000000  
  16 BR      5.4415369    4.2140452    3.3105962    4.1661283    3.3855105  
  17 H       5.6363273    4.3281229    3.8229757    3.8071445    2.6832455 *

               16 BR        17 H     

   1 C       6.2065139    5.9818788  
   2 C       5.3851149    5.5273708  
   3 C       5.4320209    4.8919925  
   4 H       6.8952947    6.6400589  
   5 H       6.9221271    6.7006283  
   6 C       3.9939244    3.5930460  
   7 H       6.0625622    5.3005548  
   8 H       5.5381844    4.9659444  
   9 C       3.9789125    4.1177920  
  10 H       6.0093676    6.3392565  
  11 H       5.4415369    5.6363273  
  12 H       4.2140452    4.3281229  
  13 H       3.3105962    3.8229757  
  14 H       4.1661283    3.8071445  
  15 H       3.3855105    2.6832455 *
  16 BR      0.0000000    1.5288172 *
  17 H       1.5288172 *  0.0000000  

  * ... LESS THAN  3.000


     ATOMIC BASIS SET
     ----------------
 THE CONTRACTED PRIMITIVE FUNCTIONS HAVE BEEN UNNORMALIZED
 THE CONTRACTED BASIS FUNCTIONS ARE NOW NORMALIZED TO UNITY

  SHELL TYPE  PRIMITIVE        EXPONENT          CONTRACTION COEFFICIENT(S)

 C         

      1   S       1            71.6168373    0.154328967295
      1   S       2            13.0450963    0.535328142282
      1   S       3             3.5305122    0.444634542185

      2   L       4             2.9412494   -0.099967229187    0.155916274999
      2   L       5             0.6834831    0.399512826089    0.607683718598
      2   L       6             0.2222899    0.700115468880    0.391957393099

 C         

      3   S       7            71.6168373    0.154328967295
      3   S       8            13.0450963    0.535328142282
      3   S       9             3.5305122    0.444634542185

      4   L      10             2.9412494   -0.099967229187    0.155916274999
      4   L      11             0.6834831    0.399512826089    0.607683718598
      4   L      12             0.2222899    0.700115468880    0.391957393099

 C         

      5   S      13            71.6168373    0.154328967295
      5   S      14            13.0450963    0.535328142282
      5   S      15             3.5305122    0.444634542185

      6   L      16             2.9412494   -0.099967229187    0.155916274999
      6   L      17             0.6834831    0.399512826089    0.607683718598
      6   L      18             0.2222899    0.700115468880    0.391957393099

 H         

      7   S      19             3.4252509    0.154328967295
      7   S      20             0.6239137    0.535328142282
      7   S      21             0.1688554    0.444634542185

 H         

      8   S      22             3.4252509    0.154328967295
      8   S      23             0.6239137    0.535328142282
      8   S      24             0.1688554    0.444634542185

 C         

      9   S      25            71.6168373    0.154328967295
      9   S      26            13.0450963    0.535328142282
      9   S      27             3.5305122    0.444634542185

     10   L      28             2.9412494   -0.099967229187    0.155916274999
     10   L      29             0.6834831    0.399512826089    0.607683718598
     10   L      30             0.2222899    0.700115468880    0.391957393099

 H         

     11   S      31             3.4252509    0.154328967295
     11   S      32             0.6239137    0.535328142282
     11   S      33             0.1688554    0.444634542185

 H         

     12   S      34             3.4252509    0.154328967295
     12   S      35             0.6239137    0.535328142282
     12   S      36             0.1688554    0.444634542185

 C         

     13   S      37            71.6168373    0.154328967295
     13   S      38            13.0450963    0.535328142282
     13   S      39             3.5305122    0.444634542185

     14   L      40             2.9412494   -0.099967229187    0.155916274999
     14   L      41             0.6834831    0.399512826089    0.607683718598
     14   L      42             0.2222899    0.700115468880    0.391957393099

 H         

     15   S      43             3.4252509    0.154328967295
     15   S      44             0.6239137    0.535328142282
     15   S      45             0.1688554    0.444634542185

 H         

     16   S      46             3.4252509    0.154328967295
     16   S      47             0.6239137    0.535328142282
     16   S      48             0.1688554    0.444634542185

 H         

     17   S      49             3.4252509    0.154328967295
     17   S      50             0.6239137    0.535328142282
     17   S      51             0.1688554    0.444634542185

 H         

     18   S      52             3.4252509    0.154328967295
     18   S      53             0.6239137    0.535328142282
     18   S      54             0.1688554    0.444634542185

 H         

     19   S      55             3.4252509    0.154328967295
     19   S      56             0.6239137    0.535328142282
     19   S      57             0.1688554    0.444634542185

 H         

     20   S      58             3.4252509    0.154328967295
     20   S      59             0.6239137    0.535328142282
     20   S      60             0.1688554    0.444634542185

 BR        

     21   S      61          2629.9974710    0.154328967295
     21   S      62           479.0573224    0.535328142282
     21   S      63           129.6516070    0.444634542185

     22   L      64           219.8350255   -0.099967229187    0.155916274999
     22   L      65            51.0849322    0.399512826089    0.607683718598
     22   L      66            16.6144055    0.700115468880    0.391957393099

     23   L      67            20.6524416   -0.219620369005    0.010587604289
     23   L      68             5.7619788    0.225595433605    0.595167005266
     23   L      69             2.2551994    0.900398426019    0.462001011973

     24   D      70            22.3657496    0.168659606013
     24   D      71             7.0128139    0.584798481745
     24   D      72             2.7316638    0.405677952331

     25   L      73             1.3960375   -0.308844121382   -0.121546859998
     25   L      74             0.5152256    0.019606411652    0.571522760389
     25   L      75             0.2275291    1.131034441567    0.549894947089

 H         

     26   S      76             3.4252509    0.154328967295
     26   S      77             0.6239137    0.535328142282
     26   S      78             0.1688554    0.444634542185

 TOTAL NUMBER OF BASIS SET SHELLS             =   26
 NUMBER OF CARTESIAN GAUSSIAN BASIS FUNCTIONS =   55
 NUMBER OF ELECTRONS                          =   76
 CHARGE OF MOLECULE                           =    0
 SPIN MULTIPLICITY                            =    1
 NUMBER OF OCCUPIED ORBITALS (ALPHA)          =   38
 NUMBER OF OCCUPIED ORBITALS (BETA )          =   38
 TOTAL NUMBER OF ATOMS                        =   17
 THE NUCLEAR REPULSION ENERGY IS      358.4931660846

     $CONTRL OPTIONS
     ---------------
 SCFTYP=RHF          RUNTYP=OPTIMIZE     EXETYP=RUN     
 MPLEVL=       0     CITYP =NONE         CCTYP =NONE         VBTYP =NONE    
 DFTTYP=NONE         TDDFT =NONE    
 MULT  =       1     ICHARG=       0     NZVAR =       1     COORD =UNIQUE  
 PP    =NONE         RELWFN=NONE         LOCAL =NONE         NUMGRD=       F
 ISPHER=      -1     NOSYM =       0     MAXIT =      30     UNITS =ANGS    
 PLTORB=       F     MOLPLT=       F     AIMPAC=       F     FRIEND=        
 NPRINT=       7     IREST =       0     GEOM  =INPUT   
 NORMF =       0     NORMP =       0     ITOL  =      20     ICUT  =       9
 INTTYP=BEST         GRDTYP=BEST         QMTTOL= 1.0E-06

     $SYSTEM OPTIONS
     ---------------
  REPLICATED MEMORY=     1000000 WORDS (ON EVERY NODE).
 DISTRIBUTED MEMDDI=           0 MILLION WORDS IN AGGREGATE,
 MEMDDI DISTRIBUTED OVER   1 PROCESSORS IS           0 WORDS/PROCESSOR.
 TOTAL MEMORY REQUESTED ON EACH PROCESSOR=     1000000 WORDS.
 TIMLIM=      525600.00 MINUTES, OR     365.0 DAYS.
 PARALL= F  BALTYP=  DLB     KDIAG=    0  COREFL= F
 MXSEQ2=     300 MXSEQ3=     150  mem10=         0

          ----------------
          PROPERTIES INPUT
          ----------------

     MOMENTS            FIELD           POTENTIAL          DENSITY
 IEMOM =       1   IEFLD =       0   IEPOT =       0   IEDEN =       0
 WHERE =COMASS     WHERE =NUCLEI     WHERE =NUCLEI     WHERE =NUCLEI  
 OUTPUT=BOTH       OUTPUT=BOTH       OUTPUT=BOTH       OUTPUT=BOTH    
 IEMINT=       0   IEFINT=       0                     IEDINT=       0
                                                       MORB  =       0
          EXTRAPOLATION IN EFFECT
          SOSCF IN EFFECT
 ORBITAL PRINTING OPTION: NPREO=     1    55     2     1

     -------------------------------
     INTEGRAL TRANSFORMATION OPTIONS
     -------------------------------
     NWORD  =            0
     CUTOFF = 1.0E-09     MPTRAN =       0
     DIRTRF =       F     AOINTS =DUP     

          ----------------------
          INTEGRAL INPUT OPTIONS
          ----------------------
 NOPK  =       1 NORDER=       0 SCHWRZ=       T


 -----------------------------------------------
  STATISTICS ON AUTOMATIC COORDINATE GENERATION 
 -----------------------------------------------
  NUMBER OF USER SPECIFIED BONDS                             2
  NUMBER OF BONDS                                           18
  NUMBER OF ANGLES                                          41
  NUMBER OF TORSIONS                                        71
  NUMBER OF EXTRA COORD.                                     0
  NUMBER OF EXTRA COORD. FOR CONSTRAINTS                     0
  NUMBER OF CONSTRAINED COORD.                               2

  TOTAL NUMBER OF PRIMITIVES                               130
 -----------------------------------------------

   --- ENCODED Z MATRIX ---
 COORD  TYPE   I   J   K   L   M   N
    1      1    6  16
    2      1    9  16
    3      1    1   5
    4      1    1   3
    5      1    1   2
    6      1    1   4
    7      1    2  11
    8      1    2   9
    9      1    2  10
   10      1    3   7
   11      1    3   6
   12      1    3   8
   13      1    6  15
   14      1    6  14
   15      1    6   9
   16      1    9  13
   17      1    9  12
   18      1   16  17
   19      2    1   3   6
   20      2    1   2   9
   21      2    1   3   7
   22      2    1   2  10
   23      2    1   2  11
   24      2    1   3   8
   25      2    2   9   6
   26      2    2   1   4
   27      2    2   9  13
   28      2    2   1   5
   29      2    2   9  12
   30      2    2   9  16
   31      2    2   1   3
   32      2    3   1   4
   33      2    3   1   5
   34      2    3   6   9
   35      2    3   6  14
   36      2    3   6  15
   37      2    3   6  16
   38      2    4   1   5
   39      2    6   3   8
   40      2    6   3   7
   41      2    6  16  17
   42      2    6  16   9
   43      2    6   9  16
   44      2    6   9  12
   45      2    6   9  13
   46      2    7   3   8
   47      2    9   2  10
   48      2    9   6  14
   49      2    9   6  15
   50      2    9   2  11
   51      2    9  16  17
   52      2    9   6  16
   53      2   10   2  11
   54      2   12   9  16
   55      2   12   9  13
   56      2   13   9  16
   57      2   14   6  16
   58      2   14   6  15
   59      2   15   6  16
   60      3    1   3   6  16
   61      3    1   2   9  16
   62      3    1   2   9  12
   63      3    1   3   6   9
   64      3    1   2   9   6
   65      3    1   3   6  14
   66      3    1   2   9  13
   67      3    1   3   6  15
   68      3    2   9   6  15
   69      3    2   9   6   3
   70      3    2   1   3   8
   71      3    2   9  16  17
   72      3    2   9  16   6
   73      3    2   1   3   6
   74      3    2   9   6  16
   75      3    2   1   3   7
   76      3    2   9   6  14
   77      3    3   1   2  11
   78      3    3   6  16  17
   79      3    3   6  16   9
   80      3    3   1   2   9
   81      3    3   1   2  10
   82      3    3   6   9  16
   83      3    3   6   9  12
   84      3    3   6   9  13
   85      3    4   1   3   8
   86      3    4   1   3   6
   87      3    4   1   2  11
   88      3    4   1   2   9
   89      3    4   1   2  10
   90      3    4   1   3   7
   91      3    5   1   3   7
   92      3    5   1   3   8
   93      3    5   1   3   6
   94      3    5   1   2  11
   95      3    5   1   2  10
   96      3    5   1   2   9
   97      3    6   9   2  10
   98      3    6   9   2  11
   99      3    6   9  16  17
  100      3    6  16   9  12
  101      3    6  16   9  13
  102      3    7   3   6  16
  103      3    7   3   6  15
  104      3    7   3   6  14
  105      3    7   3   6   9
  106      3    8   3   6  16
  107      3    8   3   6  15
  108      3    8   3   6  14
  109      3    8   3   6   9
  110      3    9  16   6  14
  111      3    9  16   6  15
  112      3    9   6  16  17
  113      3   10   2   9  16
  114      3   10   2   9  12
  115      3   10   2   9  13
  116      3   11   2   9  16
  117      3   11   2   9  12
  118      3   11   2   9  13
  119      3   12   9   6  16
  120      3   12   9   6  14
  121      3   12   9   6  15
  122      3   12   9  16  17
  123      3   13   9   6  16
  124      3   13   9   6  14
  125      3   13   9   6  15
  126      3   13   9  16  17
  127      3   14   6   9  16
  128      3   14   6  16  17
  129      3   15   6   9  16
  130      3   15   6  16  17

          INDEP./SYM. INTERNAL COORDINATES
          --------------------------------
 CRD  1=   1.0000 (  1)
 CRD  2=   1.0000 (  2)
 CRD  3=  -0.2991 (  8) -0.1342 (  9)  0.1280 ( 10)  0.3119 ( 11)  0.1063 ( 14)
           0.1108 ( 16) -0.1187 ( 17) -0.1185 ( 18)  0.1701 ( 20)  0.1040 ( 27)
           0.1828 ( 30)  0.1135 ( 32) -0.1154 ( 37)  0.1196 ( 40) -0.1127 ( 41)
          -0.2687 ( 47) -0.1213 ( 51) -0.1184 ( 60) -0.1172 ( 63) -0.1128 ( 67)
           0.1128 ( 73)  0.1862 ( 74) -0.1070 ( 78)  0.1035 ( 81) -0.1178 ( 82)
           0.1100 ( 86) -0.1735 ( 88)  0.1192 ( 93) -0.1473 ( 96)  0.1260 (101)
           0.1052 (119) -0.1292 (128) -0.1711 (130)
 CRD  4=   0.1176 (  3)  0.1261 (  5)  0.1510 (  6)  0.1162 (  8) -0.1490 ( 10)
          -0.3270 ( 15)  0.2825 ( 19)  0.2314 ( 20) -0.1036 ( 21) -0.1060 ( 22)
           0.1519 ( 26)  0.1667 ( 28) -0.4142 ( 31)  0.1337 ( 32)  0.1406 ( 33)
           0.1202 ( 36) -0.1757 ( 38) -0.1749 ( 40) -0.1696 ( 41)  0.1141 ( 46)
          -0.1143 ( 50) -0.2132 ( 51)  0.1013 ( 69)
 CRD  5=  -0.3279 (  4) -0.3204 (  5) -0.2721 (  8) -0.1808 (  9) -0.1185 ( 10)
          -0.1499 ( 11) -0.1684 ( 13) -0.3679 ( 15) -0.1298 ( 16) -0.1365 ( 21)
          -0.1250 ( 22)  0.1274 ( 26) -0.1397 ( 28) -0.1247 ( 32)  0.1275 ( 33)
          -0.1276 ( 39)  0.1481 ( 40)  0.1417 ( 41)  0.1403 ( 62)  0.1368 ( 64)
           0.1132 ( 65) -0.1125 ( 70) -0.1141 ( 77)  0.1186 ( 93)
 CRD  6=  -0.5142 (  4)  0.4858 (  5)  0.1050 ( 11)  0.1157 ( 16) -0.1089 ( 20)
          -0.1610 ( 21)  0.1340 ( 22)  0.1465 ( 26)  0.1762 ( 28) -0.2031 ( 32)
          -0.1556 ( 33)  0.1701 ( 85)  0.1471 ( 88)  0.1507 ( 89) -0.1687 ( 91)
          -0.1354 ( 93) -0.1522 ( 94)
 CRD  7=   0.1601 (  5) -0.4434 (  8) -0.4485 ( 11) -0.1076 ( 13)  0.1351 ( 15)
           0.1341 ( 21)  0.1624 ( 22) -0.1428 ( 31) -0.2229 ( 40)  0.2010 ( 41)
          -0.2086 ( 47)  0.2169 ( 51)  0.1080 ( 75) -0.1003 (120)
 CRD  8=   0.1224 (  3)  0.3501 (  4)  0.3543 (  5)  0.1084 (  6)  0.1259 ( 10)
           0.1115 ( 11)  0.1633 ( 15)  0.1948 ( 23)  0.1920 ( 24)  0.2309 ( 26)
          -0.1591 ( 28) -0.1473 ( 32)  0.2259 ( 33) -0.1717 ( 39)  0.1121 ( 40)
          -0.1384 ( 50)  0.1048 ( 64) -0.1598 ( 69) -0.1496 ( 70) -0.1417 ( 77)
           0.1401 ( 86)
 CRD  9=   0.2622 (  8) -0.2855 ( 11) -0.1100 ( 12) -0.1668 ( 13) -0.1376 ( 14)
           0.1592 ( 16)  0.1449 ( 17) -0.1659 ( 18) -0.1277 ( 23)  0.1308 ( 24)
           0.1396 ( 27) -0.1408 ( 36) -0.1887 ( 39) -0.1337 ( 45)  0.1347 ( 49)
           0.1800 ( 50) -0.1415 ( 56)  0.1464 ( 59)  0.1301 ( 73)  0.1265 ( 75)
          -0.1175 ( 78) -0.1340 ( 80) -0.1271 ( 81)  0.1556 ( 98) -0.1633 (109)
           0.1628 (121) -0.1602 (124)
 CRD 10=   0.2074 (  7) -0.1149 ( 12)  0.2482 ( 13) -0.1643 ( 14) -0.2727 ( 16)
           0.1128 ( 17) -0.1149 ( 21)  0.1531 ( 22) -0.1493 ( 30)  0.1357 ( 37)
          -0.1355 ( 39)  0.1834 ( 40) -0.2216 ( 47)  0.1890 ( 50)  0.1798 ( 54)
          -0.1918 ( 57)  0.1034 ( 73) -0.1523 ( 74)  0.1133 ( 81)  0.1383 ( 82)
           0.1449 ( 86) -0.1744 ( 88)  0.1237 ( 93) -0.1910 ( 96)  0.1025 (113)
          -0.1872 (119) -0.1052 (123)  0.1906 (127)  0.1226 (130)
 CRD 11=  -0.2224 (  3)  0.2126 (  6) -0.1217 ( 11) -0.1035 ( 13) -0.2746 ( 18)
           0.1162 ( 26) -0.1154 ( 33) -0.1682 ( 44)  0.1776 ( 48) -0.1063 ( 54)
           0.1221 ( 57) -0.1748 ( 70) -0.1784 ( 71) -0.1380 ( 72) -0.1842 ( 75)
           0.1655 ( 77)  0.1309 ( 79)  0.1846 ( 81)  0.1081 ( 86) -0.1046 ( 96)
          -0.1055 ( 97) -0.1487 ( 98) -0.1532 (100)  0.1090 (105)  0.1413 (109)
           0.1557 (110) -0.1212 (118)  0.1305 (121) -0.1936 (122) -0.1305 (124)
           0.1061 (128)
 CRD 12=   0.3549 (  7)  0.3870 ( 12) -0.2417 ( 13) -0.1676 ( 15) -0.1088 ( 16)
           0.1032 ( 23) -0.1926 ( 26)  0.1908 ( 28)  0.1781 ( 32) -0.1691 ( 33)
           0.1040 ( 35)  0.1131 ( 39)  0.1228 ( 60)  0.1364 ( 61)  0.1339 ( 62)
           0.1191 ( 65) -0.1326 ( 69)  0.1168 ( 70)  0.1207 ( 75) -0.1016 ( 82)
          -0.1215 ( 84) -0.1428 ( 86) -0.1297 ( 88) -0.1544 ( 93) -0.1100 ( 96)
 CRD 13=  -0.3880 (  3)  0.3983 (  6) -0.1925 (  7)  0.2675 ( 12)  0.1070 ( 17)
           0.1803 ( 18) -0.1231 ( 21)  0.1196 ( 22) -0.1905 ( 23)  0.1987 ( 24)
           0.1210 ( 40) -0.1330 ( 47)  0.1406 ( 60) -0.1305 ( 61) -0.1081 ( 62)
           0.1321 ( 65) -0.1392 ( 70) -0.1053 ( 73) -0.1324 ( 75)  0.1550 ( 77)
           0.1432 ( 81)  0.1009 (118)
 CRD 14=  -0.5124 ( 14)  0.1384 ( 16) -0.5411 ( 17) -0.1088 ( 21) -0.1089 ( 22)
           0.1205 ( 23)  0.1290 ( 24) -0.1047 ( 39) -0.1013 ( 44) -0.1091 ( 48)
          -0.1024 ( 50) -0.1062 ( 72) -0.1088 ( 79) -0.1385 ( 97) -0.1584 ( 98)
          -0.1008 (100) -0.1363 (105) -0.1637 (109) -0.1082 (110)
 CRD 15=   0.3266 (  7) -0.3393 (  9)  0.1006 ( 10) -0.2039 ( 12) -0.2062 ( 14)
           0.1986 ( 16)  0.3417 ( 17)  0.1897 ( 18) -0.1896 ( 27)  0.1280 ( 29)
          -0.1316 ( 35)  0.1248 ( 36)  0.1881 ( 45)  0.2239 ( 56)  0.1163 ( 57)
          -0.1278 ( 59)  0.1353 ( 66) -0.1129 ( 68) -0.1229 ( 76)  0.1038 ( 83)
           0.1475 ( 84) -0.1262 (113) -0.1152 (116)  0.1385 (123) -0.1111 (127)
          -0.1011 (129)
 CRD 16=   0.2418 (  9)  0.3969 ( 10) -0.1887 ( 12) -0.2903 ( 13) -0.3346 ( 14)
          -0.2297 ( 16) -0.1120 ( 17)  0.1088 ( 18)  0.1688 ( 36) -0.1882 ( 49)
          -0.2091 ( 59) -0.1403 ( 67) -0.1171 ( 68)  0.1458 (102)  0.1113 (106)
           0.1040 (113) -0.1204 (125) -0.1166 (129)
 CRD 17=  -0.2789 (  9)  0.2661 ( 10) -0.3611 ( 13) -0.1024 ( 14)  0.4602 ( 16)
           0.1184 ( 21) -0.1367 ( 29)  0.1394 ( 35) -0.1024 ( 36)  0.1468 ( 54)
          -0.1472 ( 57)  0.1077 ( 68)  0.1488 ( 76) -0.1487 ( 83) -0.1057 ( 84)
          -0.1550 (119) -0.1120 (123)  0.1543 (127)  0.1131 (129)  0.1359 (130)
 CRD 18=  -0.3642 (  3) -0.3557 (  6)  0.1564 (  9)  0.2821 ( 10)  0.1052 ( 14)
           0.1842 ( 17)  0.1660 ( 28)  0.1653 ( 32) -0.1460 ( 38) -0.1331 ( 39)
          -0.1369 ( 50) -0.1189 ( 70) -0.1110 ( 77) -0.1337 ( 85) -0.2478 ( 87)
          -0.1341 ( 88) -0.2097 ( 89) -0.1917 ( 91) -0.2550 ( 92) -0.1355 ( 93)
          -0.1292 ( 94)
 CRD 19=  -0.4815 (  3) -0.4835 (  6)  0.2205 (  7)  0.1289 ( 12)  0.2006 ( 13)
           0.1389 ( 16) -0.1174 ( 17)  0.1439 ( 26)  0.1459 ( 33) -0.1662 ( 38)
           0.1874 ( 85)  0.1255 ( 86)  0.1876 ( 90)  0.1799 ( 94)  0.2058 ( 95)
           0.1244 ( 96)
 CRD 20=   0.3328 (  7)  0.4800 (  9) -0.4028 ( 10) -0.3579 ( 12) -0.2117 ( 13)
           0.2369 ( 16) -0.1395 ( 46)  0.1557 ( 53) -0.1209 ( 87)
 CRD 21=  -0.1661 (  3)  0.1056 (  4)  0.1004 (  5) -0.1736 (  6) -0.3610 (  7)
          -0.3727 (  9) -0.4057 ( 10) -0.3699 ( 12) -0.1981 ( 13) -0.1524 ( 16)
          -0.1669 ( 46) -0.1561 ( 53)  0.1020 ( 85) -0.1081 ( 89) -0.1144 ( 91)
           0.1011 ( 94) -0.1093 (108)
 CRD 22=   0.1149 (  6) -0.2675 ( 12)  0.5028 ( 13)  0.2624 ( 14)  0.2922 ( 16)
           0.1604 ( 18)  0.1097 ( 41) -0.1172 ( 45) -0.1076 ( 48)  0.1021 ( 51)
          -0.1291 ( 56)  0.1673 ( 58)  0.1219 ( 65)  0.1458 (102)  0.1964 (104)
          -0.1156 (107) -0.1198 (110) -0.1066 (118) -0.1396 (124)  0.1298 (130)
 CRD 23=   0.3169 (  3) -0.3035 (  6) -0.1762 (  7)  0.4015 ( 16)  0.1301 ( 22)
          -0.1246 ( 44) -0.1068 ( 47)  0.1394 ( 55)  0.1162 ( 62) -0.1469 ( 85)
           0.1444 ( 87)  0.1450 ( 89) -0.1351 ( 90) -0.1197 ( 91) -0.1315 ( 92)
           0.1398 ( 94)  0.1404 ( 95) -0.1334 (100) -0.1034 (103) -0.1017 (104)
           0.1306 (113)  0.1995 (114)  0.1255 (117) -0.1338 (122)
 CRD 24=  -0.1672 ( 10)  0.2844 ( 12)  0.1027 ( 13) -0.3121 ( 14)  0.1026 ( 16)
           0.4204 ( 17) -0.1133 ( 18)  0.1178 ( 23) -0.1424 ( 45)  0.1318 ( 55)
          -0.1350 ( 66)  0.1075 ( 70) -0.1559 ( 71)  0.1005 ( 75)  0.1429 ( 85)
           0.1359 ( 90)  0.1519 ( 91)  0.1589 ( 92)  0.1640 (101) -0.1446 (115)
          -0.2291 (118) -0.1369 (121) -0.1285 (130)
 CRD 25=   0.3627 (  7) -0.2301 (  9)  0.1968 ( 14) -0.1899 ( 17)  0.1494 ( 18)
           0.1414 ( 27) -0.1062 ( 29)  0.1081 ( 44) -0.1286 ( 49) -0.1434 ( 56)
          -0.1426 ( 62) -0.1230 ( 67)  0.1136 ( 87)  0.1099 ( 89)  0.1016 ( 94)
          -0.1175 ( 97) -0.1568 (103) -0.1255 (104) -0.1853 (107) -0.1541 (108)
           0.1228 (111) -0.1168 (113) -0.2004 (114) -0.1524 (115) -0.1544 (117)
          -0.1064 (118) -0.1266 (123) -0.1431 (124) -0.1283 (125)
 CRD 26=   0.1411 (  7)  0.1254 ( 10) -0.1755 ( 12) -0.1211 ( 16)  0.2490 ( 17)
           0.1203 ( 35) -0.1206 ( 36) -0.1401 ( 48)  0.1147 ( 49)  0.1227 ( 59)
           0.1404 ( 65) -0.1345 ( 66)  0.1049 ( 67)  0.1203 ( 68) -0.1292 ( 71)
           0.1141 ( 76)  0.1135 ( 77)  0.1089 ( 80)  0.1359 ( 81)  0.1504 ( 87)
           0.1458 ( 88)  0.1729 ( 89) -0.1062 ( 90) -0.1184 ( 91) -0.1002 ( 92)
          -0.1084 ( 93)  0.1330 ( 94)  0.1555 ( 95)  0.1284 ( 96) -0.1068 ( 97)
          -0.1018 ( 98)  0.1142 (101)  0.1197 (103)  0.1553 (104)  0.1115 (108)
          -0.1246 (110) -0.1042 (114) -0.1620 (115) -0.1570 (118)  0.1190 (120)
           0.1252 (121)  0.1210 (124)  0.1272 (125) -0.1932 (128) -0.1235 (130)
 CRD 27=  -0.1661 ( 13)  0.3413 ( 14)  0.1300 ( 18) -0.1156 ( 27)  0.1033 ( 37)
          -0.1322 ( 44) -0.1485 ( 57) -0.1264 ( 67)  0.1205 ( 68) -0.1140 ( 71)
           0.1121 ( 76) -0.1493 ( 78)  0.1025 ( 82)  0.1397 ( 83)  0.1589 ( 84)
           0.1176 ( 90)  0.1310 ( 91)  0.1105 ( 92)  0.1131 ( 93) -0.1247 (100)
          -0.1589 (103) -0.1214 (105) -0.1732 (107) -0.1357 (109)  0.1532 (111)
           0.1798 (120)  0.1882 (121) -0.1800 (122)  0.1989 (124)  0.2073 (125)
           0.1426 (127) -0.1065 (128)  0.1510 (129)
 CRD 28=  -0.1203 ( 10)  0.1102 ( 12) -0.1203 ( 14)  0.5949 ( 18)  0.1197 ( 27)
           0.1354 ( 29)  0.1838 ( 41) -0.1060 ( 45)  0.1830 ( 51) -0.1148 ( 54)
          -0.1102 ( 55) -0.1398 ( 56) -0.1508 ( 58) -0.1125 ( 60)  0.1133 ( 79)
           0.1206 ( 83) -0.1111 ( 84) -0.1092 (102)  0.1405 (107)  0.1231 (119)
           0.2164 (120)  0.1046 (121) -0.1086 (123) -0.1270 (125) -0.1565 (130)
 CRD 29=  -0.1935 ( 17) -0.1186 ( 18) -0.1053 ( 30)  0.1373 ( 54) -0.1057 ( 68)
          -0.1765 ( 71) -0.1061 ( 74) -0.2300 ( 78) -0.2618 ( 99) -0.1073 (101)
          -0.2967 (112)  0.1037 (115) -0.1439 (119) -0.1435 (121) -0.2655 (122)
          -0.3691 (126) -0.3048 (128) -0.2841 (130)
 CRD 30=   0.1018 (  7) -0.1266 (  9)  0.1447 ( 16) -0.5529 ( 18)  0.1265 ( 29)
           0.1557 ( 35)  0.1305 ( 36)  0.2551 ( 41) -0.1032 ( 49)  0.2674 ( 51)
          -0.1233 ( 54) -0.1200 ( 55) -0.1624 ( 57) -0.1242 ( 58) -0.1338 ( 59)
          -0.1072 ( 68)  0.1627 ( 76)  0.1463 ( 83)  0.1390 (119)  0.3072 (120)
           0.1516 (124) -0.1183 (125)  0.1681 (127) -0.1018 (129)
 CRD 31=   0.2049 (  3) -0.1676 (  4)  0.1507 (  5) -0.2253 (  6) -0.1661 (  7)
           0.2233 (  9) -0.2372 ( 10)  0.1708 ( 12) -0.1354 ( 14)  0.1109 ( 17)
          -0.1600 ( 28)  0.1517 ( 32) -0.1150 ( 39) -0.1093 ( 49) -0.1524 ( 55)
           0.1388 ( 58)  0.1073 ( 66) -0.1100 ( 67) -0.1300 ( 70)  0.1084 ( 77)
          -0.1160 ( 85) -0.1502 ( 88)  0.1153 ( 91)  0.1576 ( 93) -0.1399 (101)
           0.1098 (102)  0.1708 (104)  0.1420 (108)  0.1358 (111) -0.1106 (113)
          -0.1447 (114) -0.1137 (116) -0.1478 (117) -0.1895 (126) -0.1331 (128)
 CRD 32=   0.1336 (  5)  0.2049 (  6) -0.1578 (  8)  0.1193 (  9) -0.1437 ( 11)
          -0.1314 ( 13)  0.1066 ( 14) -0.1800 ( 21) -0.1477 ( 24)  0.1557 ( 32)
           0.2184 ( 33) -0.1957 ( 38)  0.1070 ( 39)  0.1013 ( 40)  0.1236 ( 47)
           0.1551 ( 50) -0.1843 ( 53)  0.1312 ( 77) -0.1439 ( 81) -0.1432 ( 88)
          -0.2634 ( 89)  0.3441 ( 94)  0.1893 ( 96) -0.1365 (102) -0.1155 (103)
          -0.1471 (105)  0.1078 (106)  0.1288 (107)  0.1815 (108)
 CRD 33=  -0.2291 (  3) -0.1418 (  4)  0.1091 (  7)  0.1407 (  8)  0.1654 ( 11)
          -0.1158 ( 12)  0.1042 ( 14)  0.1017 ( 16)  0.1743 ( 22)  0.1430 ( 23)
          -0.2220 ( 26) -0.1463 ( 28)  0.1907 ( 38) -0.1421 ( 39) -0.1239 ( 40)
           0.1834 ( 46) -0.1124 ( 50) -0.1165 ( 70)  0.1524 ( 75) -0.3382 ( 85)
          -0.1978 ( 86)  0.2581 ( 91)  0.1296 ( 93)  0.1444 ( 97)  0.1478 (113)
           0.1127 (115) -0.1554 (117) -0.1268 (118)
 CRD 34=  -0.2855 (  4)  0.2897 (  5)  0.1065 (  6) -0.2596 (  8)  0.2344 ( 11)
           0.1431 ( 13) -0.1332 ( 16)  0.1516 ( 21) -0.1600 ( 22) -0.1330 ( 23)
           0.1210 ( 24) -0.1344 ( 39) -0.1549 ( 40)  0.1644 ( 47)  0.1475 ( 50)
           0.1219 ( 62) -0.1221 ( 65) -0.1068 ( 70)  0.1139 ( 75)  0.1139 ( 77)
          -0.1244 ( 81) -0.1673 ( 85)  0.1289 ( 87) -0.1095 ( 89) -0.1301 ( 92)
           0.1841 ( 94) -0.1003 (100) -0.1954 (108)  0.2029 (117) -0.1086 (122)
 CRD 35=   0.1062 (  4)  0.1366 (  5) -0.2546 (  9) -0.2333 ( 10)  0.3242 ( 15)
          -0.1275 ( 23) -0.1369 ( 24) -0.1887 ( 41) -0.1179 ( 44)  0.1210 ( 46)
          -0.1015 ( 48) -0.1469 ( 51)  0.1341 ( 53)  0.1233 ( 55)  0.1233 ( 58)
          -0.1366 ( 66) -0.1391 ( 67) -0.1343 ( 70) -0.1596 ( 77) -0.1148 ( 85)
          -0.1353 ( 87) -0.1056 ( 92) -0.1196 ( 94)  0.1273 ( 98) -0.1208 (100)
          -0.1054 (103)  0.1350 (106)  0.2263 (108)  0.1310 (109) -0.1014 (110)
           0.1285 (116)  0.2421 (117) -0.1110 (128)
 CRD 36=   0.1731 (  4) -0.1431 (  5)  0.1337 (  9) -0.1761 ( 10) -0.1135 ( 13)
           0.1041 ( 14) -0.1031 ( 17)  0.1219 ( 21) -0.1190 ( 22)  0.1818 ( 26)
          -0.1033 ( 27)  0.1499 ( 28) -0.1616 ( 32) -0.1869 ( 33) -0.1682 ( 39)
           0.1526 ( 46)  0.1539 ( 50) -0.1219 ( 53) -0.1735 ( 70)  0.1482 ( 77)
           0.1052 ( 84)  0.1757 ( 86)  0.2422 ( 87)  0.2325 ( 90) -0.2568 ( 92)
          -0.2388 ( 95) -0.1777 ( 96)  0.1009 (104)  0.1266 (108) -0.1060 (114)
 CRD 37=   0.2568 (  4)  0.2527 (  5) -0.1165 (  6) -0.1116 (  7)  0.1693 (  8)
           0.1910 ( 11) -0.1055 ( 12) -0.1121 ( 13) -0.1550 ( 21) -0.1553 ( 22)
          -0.1606 ( 31)  0.1786 ( 38)  0.3260 ( 41)  0.3261 ( 51)  0.1093 ( 53)
          -0.1135 ( 86)  0.1234 ( 87)  0.1232 ( 89)  0.1391 ( 91)  0.1494 ( 92)
           0.1136 ( 93) -0.1300 ( 96) -0.1203 ( 97) -0.1204 (105) -0.1290 (120)
 CRD 38=  -0.2226 (  3)  0.1477 (  4) -0.1171 (  5)  0.2001 (  6) -0.1623 ( 14)
           0.1531 ( 17)  0.1320 ( 23) -0.1416 ( 24)  0.1693 ( 28) -0.1678 ( 32)
          -0.1011 ( 55)  0.1035 ( 58)  0.1980 ( 66) -0.1988 ( 67)  0.1544 ( 68)
          -0.1015 ( 81) -0.1481 ( 84) -0.1039 ( 85)  0.1824 ( 87)  0.1418 ( 88)
           0.1397 ( 89) -0.1349 ( 91) -0.1424 ( 92) -0.1240 ( 93) -0.1067 (101)
          -0.1857 (103)  0.1112 (111)  0.1820 (115) -0.1215 (126)
 CRD 39=   0.1329 (  3) -0.1010 (  5)  0.1543 (  6) -0.1608 (  7)  0.1691 (  8)
           0.1747 ( 11) -0.1617 ( 12) -0.1062 ( 19) -0.1025 ( 20)  0.1839 ( 31)
          -0.2253 ( 38)  0.1687 ( 46) -0.1006 ( 47)  0.1589 ( 53)  0.2103 ( 75)
           0.1998 ( 81)  0.1284 ( 86) -0.2024 ( 87) -0.1335 ( 88)  0.3140 ( 90)
          -0.2206 ( 92) -0.1398 ( 93)  0.3246 ( 95)  0.1304 ( 96) -0.1197 ( 97)
          -0.1051 (102) -0.1274 (105)
 CRD 40=  -0.1403 (  7) -0.2517 (  8) -0.2868 ( 11) -0.1404 ( 12)  0.1130 ( 29)
           0.1255 ( 35)  0.1214 ( 38) -0.3293 ( 41) -0.3138 ( 51) -0.1479 ( 68)
          -0.1230 ( 69) -0.1490 ( 84) -0.1156 ( 86)  0.1381 ( 89)  0.1322 ( 91)
          -0.1030 ( 96) -0.1426 ( 97) -0.1031 (101) -0.1106 (102) -0.1120 (103)
          -0.1304 (104) -0.1323 (105) -0.1229 (113) -0.1191 (114) -0.1018 (115)
           0.1169 (120) -0.1738 (125)
 CRD 41=   0.1272 (  4) -0.1383 (  5) -0.3351 (  8)  0.3219 ( 11) -0.1980 ( 19)
           0.1941 ( 20)  0.1261 ( 29) -0.1154 ( 35)  0.1082 ( 39) -0.1095 ( 50)
          -0.1239 ( 56)  0.1216 ( 59)  0.1035 ( 60) -0.1140 ( 61) -0.1400 ( 73)
          -0.1198 ( 76)  0.1361 ( 80)  0.1123 ( 83) -0.1133 ( 89)  0.1283 ( 90)
           0.1167 ( 91) -0.1276 ( 95)  0.1312 ( 97) -0.1093 (104) -0.1297 (105)
           0.1401 (114)  0.1541 (121) -0.1412 (123) -0.1673 (124)  0.1320 (129)
 CRD 42=  -0.1158 (  3)  0.1095 (  6) -0.1437 (  7) -0.1821 (  8)  0.1664 ( 11)
           0.1496 ( 12)  0.1102 ( 21) -0.1074 ( 22) -0.1153 ( 26)  0.1854 ( 29)
          -0.1958 ( 30)  0.1163 ( 33) -0.1761 ( 35)  0.1804 ( 37) -0.1179 ( 46)
           0.1196 ( 53)  0.1013 ( 61) -0.1017 ( 63)  0.1121 ( 64) -0.1209 ( 68)
           0.1144 ( 70)  0.1445 ( 73) -0.1996 ( 74) -0.2165 ( 76) -0.1255 ( 77)
          -0.1458 ( 80)  0.1839 ( 82)  0.2021 ( 83)  0.1095 ( 84)  0.1406 ( 89)
          -0.1708 ( 90) -0.1366 ( 91)  0.1739 ( 95)  0.1511 (103)  0.1380 (104)
          -0.1496 (114) -0.1495 (115)
 CRD 43=  -0.1150 ( 13)  0.1582 ( 14)  0.1083 ( 15) -0.1309 ( 16)  0.1252 ( 17)
           0.1590 ( 27)  0.1020 ( 30)  0.1474 ( 36) -0.1799 ( 44) -0.1626 ( 48)
          -0.1010 ( 60) -0.1211 ( 61) -0.1517 ( 63) -0.1200 ( 64)  0.1971 ( 69)
           0.1246 ( 71)  0.1033 ( 74) -0.1797 ( 98)  0.1056 ( 99) -0.1805 (100)
          -0.1588 (101)  0.1580 (103)  0.1705 (104) -0.1035 (106) -0.1542 (109)
          -0.1623 (110) -0.1849 (111)  0.1202 (112)  0.1853 (114)  0.1096 (115)
          -0.1808 (116) -0.1515 (121) -0.1157 (123) -0.1315 (124) -0.2541 (125)
          -0.1384 (129)
 CRD 44=  -0.1301 (  9) -0.1399 ( 15)  0.1325 ( 17)  0.1401 ( 25)  0.1426 ( 47)
          -0.1512 ( 55)  0.2124 ( 61) -0.1771 ( 62) -0.2974 ( 71) -0.3357 ( 72)
           0.1242 ( 80)  0.1043 ( 96) -0.1512 (101) -0.1012 (106)  0.2889 (113)
          -0.1006 (114)  0.1623 (115)  0.3768 (116)  0.2501 (118) -0.1129 (126)
 CRD 45=  -0.1205 ( 10) -0.1926 ( 15)  0.1262 ( 34)  0.1328 ( 40) -0.1310 ( 58)
           0.2724 ( 60) -0.1676 ( 65) -0.3426 ( 78) -0.3614 ( 79)  0.3133 (102)
           0.1214 (103) -0.1267 (104)  0.4217 (106)  0.2298 (107) -0.1077 (111)

 THE DETERMINANT OF THE G MATRIX IS 10**(    -8)


                     --------------------
                     INTERNAL COORDINATES
                     --------------------

                 - - ATOMS - -         COORDINATE      COORDINATE
 NO.   TYPE    I  J  K  L  M  N        (BOHR,RAD)       (ANG,DEG)
 ----------------------------------------------------------------
   1 STRETCH   6 16                     7.5474228       3.9939244
   2 STRETCH   9 16                     7.5190543       3.9789125
   3 STRETCH   1  5                     2.1012072       1.1119110
   4 STRETCH   1  3                     2.9030864       1.5362473
   5 STRETCH   1  2                     2.9030720       1.5362397
   6 STRETCH   1  4                     2.1012000       1.1119072
   7 STRETCH   2 11                     2.1073739       1.1151743
   8 STRETCH   2  9                     2.8726766       1.5201551
   9 STRETCH   2 10                     2.0981302       1.1102828
  10 STRETCH   3  7                     2.0981464       1.1102913
  11 STRETCH   3  6                     2.8726479       1.5201399
  12 STRETCH   3  8                     2.1073810       1.1151781
  13 STRETCH   6 15                     2.0986205       1.1105422
  14 STRETCH   6 14                     2.1055219       1.1141943
  15 STRETCH   6  9                     2.8813426       1.5247410
  16 STRETCH   9 13                     2.0988675       1.1106729
  17 STRETCH   9 12                     2.1055051       1.1141854
  18 STRETCH  16 17                     2.8890456       1.5288172
  19 BEND      1  3  6                  1.8252860     104.5811815
  20 BEND      1  2  9                  1.8252046     104.5765194
  21 BEND      1  3  7                  2.0088848     115.1006178
  22 BEND      1  2 10                  2.0087688     115.0939729
  23 BEND      1  2 11                  1.8705383     107.1739481
  24 BEND      1  3  8                  1.8704956     107.1715023
  25 BEND      2  9  6                  1.7588021     100.7719351
  26 BEND      2  1  4                  1.8886390     108.2110457
  27 BEND      2  9 13                  1.9788951     113.3823378
  28 BEND      2  1  5                  1.9739703     113.1001675
  29 BEND      2  9 12                  1.9149754     109.7200103
  30 BEND      2  9 16                  2.6848030     153.8278818
  31 BEND      2  1  3                  1.8296834     104.8331370
  32 BEND      3  1  4                  1.9741186     113.1086648
  33 BEND      3  1  5                  1.8885064     108.2034438
  34 BEND      3  6  9                  1.7588681     100.7757200
  35 BEND      3  6 14                  1.9150742     109.7256668
  36 BEND      3  6 15                  1.9786064     113.3657968
  37 BEND      3  6 16                  2.7545816     157.8259023
  38 BEND      4  1  5                  1.9094428     109.4030159
  39 BEND      6  3  8                  1.8387036     105.3499588
  40 BEND      6  3  7                  2.0356994     116.6369839
  41 BEND      6 16 17                  1.1146986      63.8675246
  42 BEND      6 16  9                  0.3848364      22.0495022
  43 BEND      6  9 16                  1.3880422      79.5289579
  44 BEND      6  9 12                  1.9137690     109.6508871
  45 BEND      6  9 13                  1.9923317     114.1521990
  46 BEND      7  3  8                  1.8720092     107.2582291
  47 BEND      9  2 10                  2.0357365     116.6391113
  48 BEND      9  6 14                  1.9137538     109.6500163
  49 BEND      9  6 15                  1.9923549     114.1535287
  50 BEND      9  2 11                  1.8388240     105.3568573
  51 BEND      9 16 17                  1.4709421      84.2787714
  52 BEND      9  6 16                  1.3687141      78.4215399
  53 BEND     10  2 11                  1.8720294     107.2593834
  54 BEND     12  9 16                  1.6481332      94.4310778
  55 BEND     12  9 13                  1.9007381     108.9042717
  56 BEND     13  9 16                  0.8082597      46.3098674
  57 BEND     14  6 16                  1.5891978      91.0543257
  58 BEND     14  6 15                  1.9008538     108.9109005
  59 BEND     15  6 16                  0.8695723      49.8228222
  60 TORSION   1  3  6 16               2.1943264     125.7256442
  61 TORSION   1  2  9 16               2.2368675     128.1630689
  62 TORSION   1  2  9 12              -1.3189419     -75.5698030
  63 TORSION   1  3  6  9               0.6979644      39.9904147
  64 TORSION   1  2  9  6               0.6983888      40.0147335
  65 TORSION   1  3  6 14              -1.3194192     -75.5971522
  66 TORSION   1  2  9 13               2.8349075     162.4282357
  67 TORSION   1  3  6 15               2.8344084     162.3996385
  68 TORSION   2  9  6 15              -2.9860118    -171.0858743
  69 TORSION   2  9  6  3              -0.8592036     -49.2287416
  70 TORSION   2  1  3  8               1.6786204      96.1778636
  71 TORSION   2  9 16 17              -1.9972244    -114.4325283
  72 TORSION   2  9 16  6              -1.6256852     -93.1449017
  73 TORSION   2  1  3  6              -0.2675995     -15.3323192
  74 TORSION   2  9  6 16               2.6767250     153.3650442
  75 TORSION   2  1  3  7              -2.5243661    -144.6355216
  76 TORSION   2  9  6 14               1.1591653      66.4152821
  77 TORSION   3  1  2 11               1.6780425      96.1447531
  78 TORSION   3  6 16 17               1.1537150      66.1029979
  79 TORSION   3  6 16  9              -1.5737703     -90.1703988
  80 TORSION   3  1  2  9              -0.2682941     -15.3721178
  81 TORSION   3  1  2 10              -2.5249596    -144.6695290
  82 TORSION   3  6  9 16               2.7472567     157.4062142
  83 TORSION   3  6  9 12               1.1590275      66.4073863
  84 TORSION   3  6  9 13              -2.9863055    -171.1027043
  85 TORSION   4  1  3  8              -2.5506967    -146.1441543
  86 TORSION   4  1  3  6               1.7862688     102.3456629
  87 TORSION   4  1  2 11              -0.4332283     -24.8221545
  88 TORSION   4  1  2  9              -2.3795649    -136.3390254
  89 TORSION   4  1  2 10               1.6469549      94.3635634
  90 TORSION   4  1  3  7              -0.4704978     -26.9575395
  91 TORSION   5  1  3  7               1.6477888      94.4113440
  92 TORSION   5  1  3  8              -0.4324100     -24.7752709
  93 TORSION   5  1  3  6              -2.3786299    -136.2854536
  94 TORSION   5  1  2 11              -2.5515121    -146.1908772
  95 TORSION   5  1  2 10              -0.4713289     -27.0051593
  96 TORSION   5  1  2  9               1.7853366     102.2922519
  97 TORSION   6  9  2 10               2.9388099     168.3814026
  98 TORSION   6  9  2 11              -1.2706595     -72.8034255
  99 TORSION   6  9 16 17              -0.3715392     -21.2876266
 100 TORSION   6 16  9 12               1.9057091     109.1890876
 101 TORSION   6 16  9 13              -2.4218741    -138.7631660
 102 TORSION   7  3  6 16              -1.8482412    -105.8964218
 103 TORSION   7  3  6 15              -1.2081593     -69.2224275
 104 TORSION   7  3  6 14               0.9211984      52.7807818
 105 TORSION   7  3  6  9               2.9385820     168.3683487
 106 TORSION   8  3  6 16               0.2253403      12.9110461
 107 TORSION   8  3  6 15               0.8654222      49.5850404
 108 TORSION   8  3  6 14               2.9947799     171.5882497
 109 TORSION   8  3  6  9              -1.2710218     -72.8241833
 110 TORSION   9 16  6 14               1.9172310     109.8492464
 111 TORSION   9 16  6 15              -2.3741134    -136.0266778
 112 TORSION   9  6 16 17               2.7274853     156.2733967
 113 TORSION  10  2  9 16              -1.8058967    -103.4702619
 114 TORSION  10  2  9 12               0.9214791      52.7968661
 115 TORSION  10  2  9 13              -1.2078568     -69.2050952
 116 TORSION  11  2  9 16               0.2678192      15.3449100
 117 TORSION  11  2  9 12               2.9951951     171.6120380
 118 TORSION  11  2  9 13               0.8658592      49.6100767
 119 TORSION  12  9  6 16              -1.5882292     -90.9988279
 120 TORSION  12  9  6 14              -3.1057888    -177.9485900
 121 TORSION  12  9  6 15              -0.9677806     -55.4497464
 122 TORSION  12  9 16 17               1.5341699      87.9014611
 123 TORSION  13  9  6 16               0.5496231      31.4910815
 124 TORSION  13  9  6 14              -0.9679366     -55.4586807
 125 TORSION  13  9  6 15               1.1700716      67.0401629
 126 TORSION  13  9 16 17              -2.7934133    -160.0507926
 127 TORSION  14  6  9 16              -1.5175596     -86.9497621
 128 TORSION  14  6 16 17              -1.6384690     -93.8773568
 129 TORSION  15  6  9 16               0.6204485      35.5490815
 130 TORSION  15  6 16 17               0.3533719      20.2467189

     ------------------------------------------
     THE POINT GROUP IS C1 , NAXIS= 0, ORDER= 1
     ------------------------------------------

     DIMENSIONS OF THE SYMMETRY SUBSPACES ARE
 A   =   55

 ..... DONE SETTING UP THE RUN .....
 STEP CPU TIME =     0.08 TOTAL CPU TIME =          0.1 (      0.0 MIN)
 TOTAL WALL CLOCK TIME=          0.1 SECONDS, CPU UTILIZATION IS    80.00%


          -----------------------------
          STATIONARY POINT LOCATION RUN
          -----------------------------


           ** GEOMETRY CONSTRAINTS ARE BEING APPLIED. **

          TRANSFORMING DISPLACEMENT FROM INTERNALS TO CARTESIANS
          THE ROOT MEAN SQUARE ERROR IN ITERATION   1 IS   0.00082396
          THE ROOT MEAN SQUARE ERROR IN ITERATION   2 IS   0.00000009
          THE ROOT MEAN SQUARE ERROR IN ITERATION   3 IS   0.00000000
 WARNING! THE RADIUS IN CARTESIANS IS    0.20689
 OBTAINING INITIAL HESSIAN, HESS=CALC    

     ---------------------------------
     HESSIAN MATRIX CONTROL PARAMETERS
     ---------------------------------
     METHOD=ANALYTIC   NVIB  =       2   VIBSIZ= 0.01000
     RDHESS=       F   PURIFY=       F   PRTIFC=       F
     VIBANL=       F   DECOMP=       F   PROJCT=       F
     SCLFAC= 1.00000   PRTSCN=       F   NPRT  =       0
     PULCOR=       F   NPUN  =       0   REDOVB=       T
     HSSTYP=GENERAL 
 Old integral subroutine is used

     ------------------------------
     CPHF RESPONSE SOLUTION OPTIONS
     ------------------------------
     POLAR  =       F     NWORD  =       0
     CPHF   =AO      

          ********************
          1 ELECTRON INTEGRALS
          ********************
 ...... END OF ONE-ELECTRON INTEGRALS ......
 STEP CPU TIME =     0.04 TOTAL CPU TIME =          0.1 (      0.0 MIN)
 TOTAL WALL CLOCK TIME=          0.1 SECONDS, CPU UTILIZATION IS    85.71%

          -------------
          GUESS OPTIONS
          -------------
          GUESS =HUCKEL            NORB  =       0          NORDER=       0
          MIX   =       F          PRTMO =       F          PUNMO =       F
          TOLZ  = 1.0E-08          TOLE  = 1.0E-05
          SYMDEN=       F          PURIFY=       F

 INITIAL GUESS ORBITALS GENERATED BY HUCKEL   ROUTINE.
 HUCKEL GUESS REQUIRES     45466 WORDS.

 SYMMETRIES FOR INITIAL GUESS ORBITALS FOLLOW.   BOTH SET(S).
    38 ORBITALS ARE OCCUPIED (   19 CORE ORBITALS).
    20=A       21=A       22=A       23=A       24=A       25=A       26=A   
    27=A       28=A       29=A       30=A       31=A       32=A       33=A   
    34=A       35=A       36=A       37=A       38=A       39=A       40=A   
    41=A       42=A       43=A       44=A       45=A       46=A       47=A   
    48=A   
 ...... END OF INITIAL ORBITAL SELECTION ......
 STEP CPU TIME =     0.02 TOTAL CPU TIME =          0.1 (      0.0 MIN)
 TOTAL WALL CLOCK TIME=          0.2 SECONDS, CPU UTILIZATION IS    93.33%

                    ----------------------
                    AO INTEGRAL TECHNOLOGY
                    ----------------------
     S,P,L SHELL ROTATED AXIS INTEGRALS, REPROGRAMMED BY
        KAZUYA ISHIMURA (IMS) AND JOSE SIERRA (SYNSTAR).
     S,P,D,L SHELL ROTATED AXIS INTEGRALS PROGRAMMED BY
        KAZUYA ISHIMURA (INSTITUTE FOR MOLECULAR SCIENCE).
     S,P,D,F,G SHELL TO TOTAL QUARTET ANGULAR MOMENTUM SUM 5,
        ERIC PROGRAM BY GRAHAM FLETCHER (ELORET AND NASA ADVANCED
        SUPERCOMPUTING DIVISION, AMES RESEARCH CENTER).
     S,P,D,F,G,L SHELL GENERAL RYS QUADRATURE PROGRAMMED BY
        MICHEL DUPUIS (PACIFIC NORTHWEST NATIONAL LABORATORY).

          --------------------
          2 ELECTRON INTEGRALS
          --------------------

 THE -PK- OPTION IS OFF, THE INTEGRALS ARE NOT IN SUPERMATRIX FORM.
 STORING   15000 INTEGRALS/RECORD ON DISK, USING 12 BYTES/INTEGRAL.
 TWO ELECTRON INTEGRAL EVALUATION REQUIRES   90747 WORDS OF MEMORY.
 SCHWARZ INEQUALITY OVERHEAD:      1463 INTEGRALS, T=        0.00
 II,JST,KST,LST =  1  1  1  1 NREC =         1 INTLOC =    1
 II,JST,KST,LST =  2  1  1  1 NREC =         1 INTLOC =    2
 II,JST,KST,LST =  3  1  1  1 NREC =         1 INTLOC =   34
 II,JST,KST,LST =  4  1  1  1 NREC =         1 INTLOC =  140
 II,JST,KST,LST =  5  1  1  1 NREC =         1 INTLOC = 1358
 II,JST,KST,LST =  6  1  1  1 NREC =         1 INTLOC = 1930
 II,JST,KST,LST =  7  1  1  1 NREC =         1 INTLOC = 6793
 II,JST,KST,LST =  8  1  1  1 NREC =         1 INTLOC = 8828
 II,JST,KST,LST =  9  1  1  1 NREC =         1 INTLOC =11271
 II,JST,KST,LST = 10  1  1  1 NREC =         1 INTLOC =13734
 II,JST,KST,LST = 11  1  1  1 NREC =         3 INTLOC =  697
 II,JST,KST,LST = 12  1  1  1 NREC =         3 INTLOC = 6691
 II,JST,KST,LST = 13  1  1  1 NREC =         3 INTLOC =13515
 II,JST,KST,LST = 14  1  1  1 NREC =         4 INTLOC = 5249
 II,JST,KST,LST = 15  1  1  1 NREC =         7 INTLOC = 1210
 II,JST,KST,LST = 16  1  1  1 NREC =         7 INTLOC =14480
 II,JST,KST,LST = 17  1  1  1 NREC =         8 INTLOC =14161
 II,JST,KST,LST = 18  1  1  1 NREC =        10 INTLOC =  327
 II,JST,KST,LST = 19  1  1  1 NREC =        11 INTLOC = 3039
 II,JST,KST,LST = 20  1  1  1 NREC =        12 INTLOC = 7449
 II,JST,KST,LST = 21  1  1  1 NREC =        13 INTLOC =13619
 II,JST,KST,LST = 22  1  1  1 NREC =        14 INTLOC = 1493
 II,JST,KST,LST = 23  1  1  1 NREC =        15 INTLOC = 6012
 II,JST,KST,LST = 24  1  1  1 NREC =        18 INTLOC = 4734
 II,JST,KST,LST = 25  1  1  1 NREC =        24 INTLOC = 3438
 II,JST,KST,LST = 26  1  1  1 NREC =        33 INTLOC = 1310
 SCHWARZ INEQUALITY TEST SKIPPED       22910 INTEGRAL BLOCKS.
 TOTAL NUMBER OF NONZERO TWO-ELECTRON INTEGRALS =              528220
         36 INTEGRAL RECORDS WERE STORED ON DISK FILE  8.
  ...... END OF TWO-ELECTRON INTEGRALS .....
 STEP CPU TIME =     0.15 TOTAL CPU TIME =          0.3 (      0.0 MIN)
 TOTAL WALL CLOCK TIME=          0.3 SECONDS, CPU UTILIZATION IS    96.67%

          --------------------------
                 RHF SCF CALCULATION
          --------------------------

     NUCLEAR ENERGY =       358.3823738735
     MAXIT =   30     NPUNCH=    2
     EXTRAP=T  DAMP=F  SHIFT=F  RSTRCT=F  DIIS=F  DEM=F  SOSCF=T
     DENSITY MATRIX CONV=  1.00E-05
     SOSCF WILL OPTIMIZE     646 ORBITAL ROTATIONS, SOGTOL=   0.250
     MEMORY REQUIRED FOR RHF ITERS=     54529 WORDS.

 ITER EX DEM     TOTAL ENERGY        E CHANGE  DENSITY CHANGE     ORB. GRAD
   1  0  0    -2738.8816847270 -2738.8816847270  12.155745246   0.000000000
          ---------------START SECOND ORDER SCF---------------
   2  1  0    -2739.4096035471    -0.5279188201   0.189036587   0.033131797
   3  2  0    -2739.4183099404    -0.0087063933   0.024043789   0.006757417
   4  3  0    -2739.4188323403    -0.0005223999   0.009620405   0.001713607
   5  4  0    -2739.4188352983    -0.0000029580   0.000342523   0.000102649
   6  5  0    -2739.4188354012    -0.0000001029   0.000170569   0.000033430
   7  6  0    -2739.4188354035    -0.0000000024   0.000020723   0.000002867
   8  7  0    -2739.4188354036    -0.0000000001   0.000002664   0.000000700
   9  8  0    -2739.4188354036    -0.0000000000   0.000001170   0.000000204

          -----------------
          DENSITY CONVERGED
          -----------------
     TIME TO FORM FOCK OPERATORS=       0.1 SECONDS (       0.0 SEC/ITER)
     TIME TO SOLVE SCF EQUATIONS=       0.0 SECONDS (       0.0 SEC/ITER)

 FINAL RHF ENERGY IS    -2739.4188354036 AFTER   9 ITERATIONS

          ------------
          EIGENVECTORS
          ------------

                      1          2          3          4          5
                 -484.8087   -63.7190   -57.8503   -57.8479   -57.8479
                     A          A          A          A          A   
    1  C  1  S   -0.000000  -0.000000  -0.000000   0.000000  -0.000000
    2  C  1  S    0.000000   0.000003  -0.000000  -0.000000   0.000000
    3  C  1  X   -0.000000  -0.000000  -0.000000   0.000000  -0.000000
    4  C  1  Y   -0.000000  -0.000003  -0.000000   0.000000  -0.000000
    5  C  1  Z   -0.000000  -0.000001  -0.000000   0.000000  -0.000000
    6  C  2  S    0.000000   0.000002  -0.000000  -0.000000   0.000000
    7  C  2  S   -0.000000  -0.000017   0.000000   0.000002  -0.000001
    8  C  2  X   -0.000000  -0.000002   0.000000   0.000000  -0.000000
    9  C  2  Y    0.000000   0.000010  -0.000000  -0.000001   0.000000
   10  C  2  Z    0.000000   0.000002  -0.000000  -0.000000   0.000000
   11  C  3  S    0.000000   0.000001  -0.000000  -0.000000   0.000000
   12  C  3  S   -0.000000  -0.000012   0.000000   0.000002  -0.000000
   13  C  3  X   -0.000000  -0.000001  -0.000000   0.000000  -0.000000
   14  C  3  Y    0.000000   0.000007  -0.000000  -0.000001  -0.000000
   15  C  3  Z   -0.000000  -0.000004   0.000000   0.000000  -0.000000
   16  H  4  S    0.000000   0.000000   0.000000   0.000000  -0.000000
   17  H  5  S   -0.000000  -0.000000   0.000000   0.000000   0.000000
   18  C  6  S   -0.000000  -0.000003  -0.000000   0.000001  -0.000000
   19  C  6  S    0.000000   0.000035   0.000000  -0.000010   0.000002
   20  C  6  X    0.000000   0.000031  -0.000000  -0.000007   0.000001
   21  C  6  Y    0.000000   0.000010  -0.000001   0.000001  -0.000001
   22  C  6  Z   -0.000000  -0.000007  -0.000000   0.000003  -0.000001
   23  H  7  S    0.000000   0.000002  -0.000000  -0.000000   0.000000
   24  H  8  S    0.000000   0.000003  -0.000000  -0.000001   0.000000
   25  C  9  S   -0.000000  -0.000013  -0.000000   0.000001  -0.000000
   26  C  9  S    0.000001   0.000121   0.000002  -0.000013   0.000002
   27  C  9  X   -0.000000  -0.000067  -0.000001   0.000008  -0.000001
   28  C  9  Y   -0.000000  -0.000046  -0.000002   0.000005   0.000000
   29  C  9  Z    0.000000   0.000030   0.000001  -0.000004   0.000000
   30  H 10  S    0.000000   0.000003   0.000000  -0.000000   0.000000
   31  H 11  S    0.000000   0.000006   0.000000  -0.000001   0.000000
   32  H 12  S   -0.000000  -0.000012   0.000000   0.000001  -0.000001
   33  H 13  S   -0.000001  -0.000249  -0.000005   0.000029  -0.000003
   34  H 14  S   -0.000000  -0.000010   0.000000   0.000002   0.000001
   35  H 15  S   -0.000000  -0.000061  -0.000001   0.000021  -0.000004
   36  BR16  S    0.994692   0.419612   0.000715  -0.000001   0.000000
   37  BR16  S    0.014823  -1.059866  -0.001822   0.000003  -0.000001
   38  BR16  X    0.000007  -0.001470   0.943534  -0.307701   0.028755
   39  BR16  Y    0.000002  -0.000478   0.308855   0.935861  -0.120855
   40  BR16  Z    0.000000  -0.000017   0.010350   0.123797   0.985093
   41  BR16  S   -0.073389   2.442673   0.003946  -0.000007   0.000003
   42  BR16  X   -0.000003  -0.000395   0.017776  -0.005761   0.000538
   43  BR16  Y   -0.000001  -0.000130   0.005819   0.017522  -0.002263
   44  BR16  Z   -0.000000  -0.000004   0.000195   0.002318   0.018444
   45  BR16 XX    0.032041  -1.127375  -0.001715  -0.000040   0.000003
   46  BR16 YY    0.032040  -1.127353  -0.001827   0.000046  -0.000007
   47  BR16 ZZ    0.032040  -1.127350  -0.001840   0.000003   0.000000
   48  BR16 XY    0.000000  -0.000009   0.000047   0.000069  -0.000009
   49  BR16 XZ    0.000000  -0.000000   0.000002   0.000010   0.000081
   50  BR16 YZ    0.000000  -0.000000   0.000001   0.000004   0.000026
   51  BR16  S    0.000094   0.018824  -0.000138  -0.000000   0.000000
   52  BR16  X    0.000009   0.001592  -0.001418   0.000400  -0.000037
   53  BR16  Y    0.000003   0.000526  -0.000464  -0.001217   0.000157
   54  BR16  Z    0.000000   0.000018  -0.000016  -0.000161  -0.001281
   55  H 17  S   -0.000022  -0.004055   0.000463  -0.000001   0.000000

                      6          7          8          9         10
                  -11.0375   -11.0345   -11.0342   -11.0340   -11.0333
                     A          A          A          A          A   
    1  C  1  S   -0.007372  -0.531308   0.805887   0.161430   0.161817
    2  C  1  S    0.000164  -0.024921   0.027828   0.006077   0.000101
    3  C  1  X    0.000103  -0.002683  -0.002094  -0.001495   0.002962
    4  C  1  Y   -0.000091   0.002304   0.000566   0.000008   0.002692
    5  C  1  Z   -0.000163   0.000383   0.000240   0.000350  -0.000376
    6  C  2  S   -0.012897   0.055567  -0.113400  -0.209095   0.961328
    7  C  2  S   -0.000275   0.005949  -0.007131  -0.014252   0.034070
    8  C  2  X   -0.000237   0.001879  -0.002211  -0.002100  -0.000210
    9  C  2  Y   -0.000066   0.001123  -0.003288   0.003177  -0.000121
   10  C  2  Z   -0.000271  -0.000370  -0.000127   0.001276   0.000803
   11  C  3  S   -0.037742   0.829272   0.490839   0.224876   0.058416
   12  C  3  S   -0.007157   0.033891   0.013594   0.007104   0.001309
   13  C  3  X    0.001012  -0.002196   0.002414   0.000910   0.000623
   14  C  3  Y    0.003961   0.001143  -0.002152  -0.000235  -0.000278
   15  C  3  Z   -0.001296  -0.000264  -0.000801  -0.000008  -0.000097
   16  H  4  S    0.000094   0.003688  -0.005435  -0.001195  -0.000995
   17  H  5  S   -0.000042   0.003716  -0.005448  -0.001044  -0.001028
   18  C  6  S    0.990537   0.025891   0.014058   0.038602   0.021978
   19  C  6  S    0.037479  -0.003349  -0.000511  -0.005193  -0.000520
   20  C  6  X   -0.000478  -0.001553  -0.001727   0.003339   0.000773
   21  C  6  Y    0.000759  -0.003229  -0.001975  -0.000584  -0.000468
   22  C  6  Z   -0.000172   0.000850   0.000049   0.001838   0.000175
   23  H  7  S    0.000384  -0.005614  -0.003150  -0.001664  -0.000461
   24  H  8  S    0.000233  -0.005756  -0.003333  -0.001465  -0.000375
   25  C  9  S   -0.032527  -0.096678  -0.284941   0.928403   0.174460
   26  C  9  S   -0.006877  -0.004277  -0.010061   0.035886   0.000766
   27  C  9  X   -0.003924  -0.000127  -0.000577  -0.000308   0.001664
   28  C  9  Y    0.000207  -0.000578  -0.000075   0.001261  -0.003501
   29  C  9  Z   -0.001667  -0.000011   0.000257   0.000373  -0.001280
   30  H 10  S   -0.000074  -0.000497   0.000783   0.001513  -0.006431
   31  H 11  S    0.000142  -0.000422   0.000853   0.001440  -0.006603
   32  H 12  S    0.000249   0.000735   0.001949  -0.006328  -0.001193
   33  H 13  S    0.000340   0.000564   0.001713  -0.006352  -0.001090
   34  H 14  S   -0.006756  -0.000149  -0.000130  -0.000243  -0.000098
   35  H 15  S   -0.006703  -0.000039  -0.000139  -0.000114  -0.000294
   36  BR16  S   -0.000000   0.000000   0.000000  -0.000001  -0.000000
   37  BR16  S    0.000000  -0.000000  -0.000001   0.000002   0.000000
   38  BR16  X   -0.000001   0.000000   0.000000  -0.000001  -0.000000
   39  BR16  Y    0.000001  -0.000000  -0.000001   0.000002   0.000000
   40  BR16  Z   -0.000000  -0.000000  -0.000000   0.000000   0.000000
   41  BR16  S    0.000001  -0.000002  -0.000004   0.000013   0.000001
   42  BR16  X    0.000002  -0.000000  -0.000001   0.000005   0.000001
   43  BR16  Y   -0.000005   0.000002   0.000002  -0.000008  -0.000001
   44  BR16  Z    0.000001   0.000000   0.000000  -0.000000  -0.000000
   45  BR16 XX   -0.000002   0.000001   0.000002  -0.000007  -0.000001
   46  BR16 YY   -0.000001   0.000001   0.000002  -0.000007  -0.000001
   47  BR16 ZZ   -0.000001   0.000001   0.000002  -0.000008  -0.000001
   48  BR16 XY   -0.000000   0.000000   0.000000  -0.000000  -0.000000
   49  BR16 XZ   -0.000000  -0.000000  -0.000000   0.000000   0.000000
   50  BR16 YZ   -0.000000   0.000000   0.000000  -0.000000  -0.000000
   51  BR16  S   -0.000010  -0.000007  -0.000013   0.000043   0.000004
   52  BR16  X   -0.000025   0.000003   0.000008  -0.000031  -0.000006
   53  BR16  Y    0.000027  -0.000010  -0.000015   0.000050   0.000004
   54  BR16  Z   -0.000005  -0.000001  -0.000001   0.000002   0.000001
   55  H 17  S    0.000147  -0.000002   0.000002   0.000001   0.000006

                     11         12         13         14         15
                   -9.2099    -6.9049    -6.8916    -6.8916    -2.2901
                     A          A          A          A          A   
    1  C  1  S   -0.000001   0.000000  -0.000001   0.000001  -0.000000
    2  C  1  S    0.000003   0.000000   0.000007  -0.000006   0.000003
    3  C  1  X   -0.000000   0.000000  -0.000000   0.000000   0.000001
    4  C  1  Y   -0.000003   0.000000  -0.000007   0.000005  -0.000003
    5  C  1  Z   -0.000001   0.000001  -0.000001   0.000000   0.000001
    6  C  2  S    0.000002   0.000000   0.000003  -0.000003  -0.000000
    7  C  2  S   -0.000021  -0.000003  -0.000036   0.000034  -0.000003
    8  C  2  X   -0.000003  -0.000001  -0.000004   0.000006   0.000002
    9  C  2  Y    0.000011   0.000001   0.000018  -0.000019   0.000001
   10  C  2  Z    0.000003   0.000003   0.000007  -0.000007   0.000001
   11  C  3  S    0.000002   0.000002   0.000004  -0.000002   0.000000
   12  C  3  S   -0.000015  -0.000015  -0.000040   0.000024  -0.000014
   13  C  3  X   -0.000001   0.000003   0.000002   0.000000   0.000004
   14  C  3  Y    0.000009   0.000010   0.000023  -0.000012   0.000005
   15  C  3  Z   -0.000005  -0.000003  -0.000009   0.000006  -0.000001
   16  H  4  S    0.000000  -0.000000  -0.000000   0.000000  -0.000000
   17  H  5  S   -0.000000  -0.000000  -0.000000   0.000000  -0.000000
   18  C  6  S   -0.000005  -0.000002  -0.000016   0.000016  -0.000020
   19  C  6  S    0.000054   0.000027   0.000189  -0.000159   0.000262
   20  C  6  X    0.000045   0.000032   0.000134  -0.000109   0.000135
   21  C  6  Y    0.000012   0.000020   0.000008   0.000031  -0.000091
   22  C  6  Z   -0.000011  -0.000001  -0.000050   0.000045  -0.000071
   23  H  7  S    0.000002   0.000001   0.000006  -0.000004   0.000004
   24  H  8  S    0.000005   0.000002   0.000012  -0.000010   0.000012
   25  C  9  S   -0.000020   0.000009  -0.000030   0.000021  -0.000007
   26  C  9  S    0.000151  -0.000054   0.000278  -0.000208   0.000077
   27  C  9  X   -0.000085   0.000023  -0.000160   0.000127  -0.000037
   28  C  9  Y   -0.000052   0.000051  -0.000097   0.000044  -0.000035
   29  C  9  Z    0.000037  -0.000014   0.000071  -0.000055   0.000020
   30  H 10  S    0.000003  -0.000000   0.000006  -0.000005   0.000002
   31  H 11  S    0.000008  -0.000002   0.000016  -0.000011   0.000005
   32  H 12  S   -0.000015  -0.000002  -0.000013   0.000035  -0.000001
   33  H 13  S   -0.000332   0.000125  -0.000645   0.000478  -0.000194
   34  H 14  S   -0.000015  -0.000013  -0.000052   0.000001  -0.000026
   35  H 15  S   -0.000110  -0.000046  -0.000447   0.000391  -0.000766
   36  BR16  S    0.170455  -0.001954   0.000002  -0.000003  -0.000222
   37  BR16  S   -0.524716   0.006057  -0.000006   0.000010   0.000617
   38  BR16  X   -0.004242  -0.396861   0.106121  -0.075086   0.001389
   39  BR16  Y   -0.001377  -0.129792  -0.316162   0.240599   0.000458
   40  BR16  Z   -0.000049  -0.004285  -0.252008  -0.333471   0.000015
   41  BR16  S    2.305921  -0.025637   0.000031  -0.000045  -0.003774
   42  BR16  X    0.010620   1.012305  -0.270799   0.191605  -0.003475
   43  BR16  Y    0.003446   0.331070   0.806785  -0.613963  -0.001147
   44  BR16  Z    0.000122   0.010930   0.643076   0.850953  -0.000036
   45  BR16 XX   -0.549551   0.010475  -0.001802   0.001279   0.855131
   46  BR16 YY   -0.552044   0.004035   0.001735  -0.001317  -0.353954
   47  BR16 ZZ   -0.552343   0.003269   0.000044   0.000072  -0.498621
   48  BR16 XY    0.001054   0.002714   0.002755  -0.002114   0.511735
   49  BR16 XZ    0.000035   0.000093   0.002452   0.003270   0.017133
   50  BR16 YZ    0.000012   0.000030   0.000836   0.001033   0.005539
   51  BR16  S    0.030965   0.004887   0.000006  -0.000002  -0.007015
   52  BR16  X    0.002940   0.049017  -0.011357   0.008038  -0.009715
   53  BR16  Y    0.000967   0.016031   0.033833  -0.025746  -0.003168
   54  BR16  Z    0.000033   0.000531   0.026956   0.035670  -0.000109
   55  H 17  S   -0.005425  -0.012782   0.000011  -0.000015   0.027203

                     16         17         18         19         20
                   -2.2852    -2.2852    -2.2718    -2.2718    -1.0860
                     A          A          A          A          A   
    1  C  1  S    0.000000  -0.000000  -0.000000  -0.000000  -0.101901
    2  C  1  S   -0.000001   0.000000   0.000002   0.000001   0.265567
    3  C  1  X   -0.000000   0.000000  -0.000000  -0.000000   0.001955
    4  C  1  Y    0.000001  -0.000000  -0.000002  -0.000001  -0.061443
    5  C  1  Z   -0.000001   0.000000  -0.000000  -0.000000  -0.001229
    6  C  2  S    0.000000  -0.000000   0.000000   0.000000  -0.106407
    7  C  2  S   -0.000001   0.000000  -0.000005  -0.000004   0.276444
    8  C  2  X   -0.000001   0.000000  -0.000000  -0.000000   0.061360
    9  C  2  Y    0.000000  -0.000000   0.000002   0.000002  -0.018607
   10  C  2  Z   -0.000001   0.000000   0.000000   0.000000  -0.011440
   11  C  3  S   -0.000000   0.000000   0.000000  -0.000000  -0.106205
   12  C  3  S    0.000007  -0.000001  -0.000004  -0.000001   0.276453
   13  C  3  X   -0.000001   0.000000  -0.000001  -0.000001  -0.057809
   14  C  3  Y   -0.000003   0.000000   0.000002   0.000000  -0.024187
   15  C  3  Z   -0.000000   0.000000  -0.000001  -0.000000   0.009416
   16  H  4  S    0.000000  -0.000000   0.000000  -0.000000   0.048274
   17  H  5  S   -0.000000   0.000000  -0.000000  -0.000000   0.048548
   18  C  6  S    0.000012  -0.000003  -0.000006  -0.000004  -0.109434
   19  C  6  S   -0.000129   0.000034   0.000066   0.000041   0.284883
   20  C  6  X   -0.000068   0.000018   0.000037   0.000023  -0.038608
   21  C  6  Y    0.000057  -0.000018  -0.000020  -0.000021   0.049978
   22  C  6  Z    0.000030  -0.000009  -0.000015  -0.000012  -0.026083
   23  H  7  S   -0.000002   0.000000   0.000001   0.000001   0.047098
   24  H  8  S   -0.000005   0.000001   0.000003   0.000002   0.056307
   25  C  9  S   -0.000004   0.000001  -0.000011  -0.000006  -0.111019
   26  C  9  S    0.000037  -0.000008   0.000117   0.000062   0.288016
   27  C  9  X   -0.000015   0.000003  -0.000056  -0.000031   0.033843
   28  C  9  Y   -0.000027   0.000007  -0.000062  -0.000027   0.052410
   29  C  9  Z    0.000008  -0.000002   0.000028   0.000014   0.027185
   30  H 10  S    0.000000  -0.000000   0.000002   0.000001   0.047078
   31  H 11  S    0.000001  -0.000000   0.000006   0.000003   0.055354
   32  H 12  S   -0.000001  -0.000001   0.000001  -0.000008   0.057824
   33  H 13  S   -0.000097   0.000022  -0.000306  -0.000159   0.048839
   34  H 14  S    0.000011   0.000003  -0.000010   0.000008   0.056663
   35  H 15  S    0.000333  -0.000091  -0.000171  -0.000114   0.049912
   36  BR16  S    0.000000   0.000000  -0.000000  -0.000000  -0.000124
   37  BR16  S   -0.000000  -0.000000   0.000000   0.000000   0.000391
   38  BR16  X   -0.000535   0.000099  -0.000001  -0.000001   0.000033
   39  BR16  Y    0.001612  -0.000355   0.000003   0.000003   0.000119
   40  BR16  Z    0.000368   0.001699   0.000003  -0.000003  -0.000000
   41  BR16  S    0.000002   0.000001   0.000000  -0.000001  -0.001840
   42  BR16  X    0.001437  -0.000266   0.000003   0.000002  -0.000098
   43  BR16  Y   -0.004327   0.000954  -0.000009  -0.000008  -0.000354
   44  BR16  Z   -0.000989  -0.004561  -0.000007   0.000008   0.000001
   45  BR16 XX   -0.503802   0.092635  -0.076863  -0.033792   0.000410
   46  BR16 YY    0.499959  -0.110228  -0.691994  -0.364708   0.000371
   47  BR16 ZZ    0.003842   0.017592   0.768857   0.398501   0.000462
   48  BR16 XY    0.786828  -0.176977   0.266240   0.128612  -0.000012
   49  BR16 XZ    0.198276   0.929275   0.134356  -0.280663  -0.000000
   50  BR16 YZ    0.075563   0.301796  -0.440221   0.842248   0.000001
   51  BR16  S   -0.000002  -0.000003   0.000004   0.000002   0.003190
   52  BR16  X   -0.000027   0.000002  -0.000001  -0.000002   0.000245
   53  BR16  Y    0.000072  -0.000017   0.000007   0.000004   0.001028
   54  BR16  Z    0.000017   0.000079   0.000001  -0.000001  -0.000002
   55  H 17  S   -0.000004   0.000009   0.000001   0.000003   0.000639

                     21         22         23         24         25
                   -0.9178    -0.9136    -0.8726    -0.7423    -0.7224
                     A          A          A          A          A   
    1  C  1  S    0.100993   0.116574  -0.008787  -0.010513  -0.118114
    2  C  1  S   -0.289958  -0.336056   0.025902   0.033208   0.376652
    3  C  1  X    0.091646  -0.080891  -0.001091  -0.118633   0.002041
    4  C  1  Y    0.005734  -0.004135   0.002078   0.007348   0.143408
    5  C  1  Z   -0.011294   0.010532   0.000211   0.076858  -0.004883
    6  C  2  S    0.137712  -0.059269  -0.001904  -0.058105   0.103131
    7  C  2  S   -0.395383   0.169684   0.005740   0.183944  -0.328740
    8  C  2  X   -0.015239  -0.027489   0.000960  -0.027037   0.133377
    9  C  2  Y   -0.046280  -0.112655   0.008029   0.110825   0.053233
   10  C  2  Z   -0.003155  -0.011224   0.000916   0.097344  -0.045542
   11  C  3  S   -0.076452   0.129079   0.000012   0.069607   0.095327
   12  C  3  S    0.219048  -0.372705   0.000103  -0.219928  -0.304285
   13  C  3  X    0.035605   0.020887  -0.001845  -0.025277  -0.135704
   14  C  3  Y   -0.102429  -0.062650   0.007840  -0.101874   0.054404
   15  C  3  Z    0.006821   0.004336  -0.000400   0.099459   0.031629
   16  H  4  S   -0.082569  -0.094191   0.008356   0.049829   0.181564
   17  H  5  S   -0.080168  -0.096802   0.008277  -0.017865   0.187955
   18  C  6  S   -0.141582  -0.031763   0.006335  -0.115492  -0.033947
   19  C  6  S    0.406789   0.091281  -0.018782   0.365855   0.108589
   20  C  6  X    0.024455  -0.093384   0.003995   0.081395  -0.091536
   21  C  6  Y    0.019000  -0.071617  -0.003933  -0.061668  -0.117964
   22  C  6  Z   -0.016505  -0.006869   0.001172   0.125973   0.008790
   23  H  7  S    0.061012  -0.108617   0.000532  -0.087240  -0.158747
   24  H  8  S    0.063486  -0.099678  -0.000310  -0.138706  -0.138786
   25  C  9  S   -0.010997  -0.142803   0.006601   0.110334  -0.049646
   26  C  9  S    0.031566   0.410784  -0.019732  -0.348898   0.159115
   27  C  9  X    0.104128  -0.014275  -0.003509   0.076939   0.089338
   28  C  9  Y   -0.067419   0.006417  -0.001697   0.036979  -0.115559
[...]
                   Z -0.00000894  0.00000113 -0.00000789  0.00000290  0.00000501
 17   H            X -0.00030079  0.00031011 -0.00003324 -0.00031574 -0.00011792
                   Y  0.00098511 -0.00067729  0.00031080  0.00067452  0.00053202
                   Z  0.00011948  0.00005314  0.00022588 -0.00018729 -0.00031679

 TRANS. SAYVETZ    X  0.00000001 -0.00000002 -0.00000015 -0.00000009 -0.00000001
                   Y -0.00000004 -0.00000018 -0.00000026  0.00000040 -0.00000011
                   Z  0.00000001 -0.00000011 -0.00000011 -0.00000001 -0.00000011
               TOTAL  0.00000004  0.00000021  0.00000032  0.00000041  0.00000016

   ROT. SAYVETZ    X -0.00019503 -0.00004775 -0.00011411 -0.00015165 -0.00017391
                   Y  0.00006029  0.00005438  0.00016461 -0.00001172  0.00005312
                   Z  0.00009809 -0.00012400  0.00011117  0.00015593  0.00011309
               TOTAL  0.00022648  0.00014357  0.00022907  0.00021783  0.00021414

                           41          42          43          44          45
       FREQUENCY:      3130.92     3609.93     3612.51     3615.66     3617.25  
        SYMMETRY:         A           A           A           A           A   
    REDUCED MASS:      1.02053     1.06414     1.06445     1.06763     1.06796
    IR INTENSITY:      0.06532     0.07411     0.02303     0.16204     0.11860

  1   C            X  0.00000155 -0.00039449 -0.00300463 -0.00181214  0.00333898
                   Y -0.00000661 -0.00870160  0.03679094 -0.01613621 -0.03266679
                   Z -0.00000197 -0.00103654  0.00741271 -0.00122038 -0.00710568
  2   C            X -0.00000203 -0.00225029  0.03855688  0.03817584 -0.01483203
                   Y -0.00000097  0.00108414 -0.00593037 -0.00415353  0.00447158
                   Z  0.00000626  0.00174258 -0.01507206 -0.01535081  0.00893667
  3   C            X -0.00000124  0.02666881 -0.02257068  0.03951914 -0.01831541
                   Y -0.00000425  0.00914057 -0.01147479  0.01816503 -0.00604961
                   Z -0.00000621 -0.00732359  0.00834406 -0.01528986  0.00668037
  4   H            X -0.00001308  0.00495235 -0.02473404  0.00901565  0.02339487
                   Y -0.00001379  0.03620290 -0.15935533  0.06189262  0.13968733
                   Z  0.00003379  0.07600772 -0.33643224  0.13287445  0.29702108
  5   H            X -0.00001065 -0.01245905  0.05207993 -0.02453374 -0.04573221
                   Y -0.00000320  0.06358015 -0.26272160  0.11640651  0.22640096
                   Z -0.00002868 -0.06062828  0.25317016 -0.11238384 -0.21995616
  6   C            X  0.00001264 -0.03336733 -0.00555238  0.01348792  0.00739410
                   Y -0.00003579  0.04482097  0.01072717 -0.02078387 -0.00651420
                   Z  0.00000140 -0.02265742 -0.00470199  0.01290603  0.00619470
  7   H            X  0.00005937 -0.22108367  0.18550623 -0.31290614  0.14065658
                   Y -0.00007436 -0.07030488  0.06122882 -0.10216026  0.04525762
                   Z  0.00007120 -0.18310959  0.15492802 -0.26188087  0.11806866
  8   H            X -0.00000612 -0.08043483  0.07587025 -0.12971598  0.05569048
                   Y -0.00003727 -0.05588694  0.04802555 -0.08401380  0.03865985
                   Z -0.00002764  0.26993884 -0.25108362  0.43376832 -0.18967665
  9   C            X -0.00000338 -0.00552657 -0.01363257 -0.00823946 -0.02384739
                   Y -0.00000364 -0.01192001 -0.01816116 -0.00811335 -0.03468054
                   Z  0.00000638 -0.00845637 -0.01669970 -0.00901598 -0.03675262
 10   H            X -0.00002589  0.01797461 -0.31120537 -0.29874059  0.11245277
                   Y -0.00004443 -0.00872037  0.13516120  0.13004055 -0.05060364
                   Z -0.00003515  0.01283657 -0.21787501 -0.21052334  0.07934529
 11   H            X -0.00000783  0.00934539 -0.12818239 -0.12519107  0.05536645
                   Y -0.00001689  0.00630840 -0.07241098 -0.07093498  0.03469843
                   Z  0.00000029 -0.02788994  0.39146679  0.38641274 -0.16767875
 12   H            X -0.00008876  0.01217122  0.01612240  0.00619920  0.03388919
                   Y -0.00006529 -0.00609997 -0.00800403 -0.00309662 -0.01879726
                   Z -0.00002371  0.15650986  0.28778428  0.14892963  0.57310250
 13   H            X -0.00023565  0.07508725  0.12999008  0.06321210  0.23097847
                   Y  0.00025364  0.13361729  0.22226798  0.10612071  0.39924939
                   Z -0.00015864 -0.05419504 -0.09162132 -0.04395384 -0.16514706
 14   H            X  0.00019454  0.04803053  0.01238688 -0.02309881 -0.00610624
                   Y  0.00002429 -0.17649107 -0.03564454  0.08057957  0.03551017
                   Z -0.00016713  0.58572896  0.12468241 -0.27302244 -0.11161817
 15   H            X  0.00005237  0.32322453  0.06590731 -0.13021703 -0.04986538
                   Y  0.00023547 -0.33211002 -0.07058012  0.13476372  0.04876102
                   Z  0.00032082 -0.32593145 -0.06837711  0.13280240  0.04897877
 16   BR           X -0.01124384 -0.00000094  0.00000129  0.00000116  0.00000315
                   Y -0.00344121  0.00000111 -0.00000366 -0.00000373 -0.00000827
                   Z -0.00463582 -0.00000084  0.00000065  0.00000095  0.00000180
 17   H            X  0.88044691  0.00031827  0.00002022 -0.00013063 -0.00014133
                   Y  0.26981840 -0.00006373  0.00001212  0.00006699  0.00006985
                   Z  0.36295560  0.00005821 -0.00001933 -0.00005233 -0.00007582

 TRANS. SAYVETZ    X  0.00000004 -0.00000019  0.00000003  0.00000016 -0.00000008
                   Y -0.00000001  0.00000004  0.00000007  0.00000002  0.00000007
                   Z  0.00000001 -0.00000049  0.00000007 -0.00000025  0.00000016
               TOTAL  0.00000004  0.00000053  0.00000011  0.00000029  0.00000020

   ROT. SAYVETZ    X  0.00000655 -0.00008750  0.00002041  0.00006238  0.00006053
                   Y -0.00005689 -0.00011331  0.00003479 -0.00001579 -0.00000866
                   Z  0.00002719  0.00003071 -0.00000293 -0.00001576 -0.00000278
               TOTAL  0.00006339  0.00014642  0.00004044  0.00006624  0.00006121

                           46          47          48          49          50
       FREQUENCY:      3624.22     3729.55     3731.80     3735.21     3736.83  
        SYMMETRY:         A           A           A           A           A   
    REDUCED MASS:      1.07244     1.11437     1.11400     1.11059     1.11037
    IR INTENSITY:      0.02272     0.00909     0.00786     0.01630     0.02024

  1   C            X  0.00288179  0.00742677  0.00338338 -0.00327396  0.00687249
                   Y -0.04603002 -0.01024235 -0.00304876  0.00500090 -0.00973991
                   Z -0.00888116  0.05316045  0.02612647 -0.02446376  0.05210669
  2   C            X  0.03237078 -0.01220672 -0.01632780 -0.01774200  0.00253198
                   Y -0.00315633  0.01227675  0.01518273  0.01795632 -0.00229428
                   Z -0.01532423 -0.03448787 -0.04072438 -0.05076042  0.00514757
  3   C            X -0.02702103 -0.01835544  0.00981451  0.01332088  0.01161444
                   Y -0.01042539 -0.00307641  0.00213048  0.00165339  0.00151865
                   Z  0.01162856 -0.05290014  0.02493439  0.04194184  0.03788913
  4   H            X  0.03116778 -0.02679400 -0.01222171  0.01421651 -0.02552324
                   Y  0.18542450 -0.16588730 -0.08769555  0.07626493 -0.17042976
                   Z  0.39692980 -0.34564037 -0.18104095  0.15892268 -0.34971127
  5   H            X -0.06390349 -0.05683643 -0.02752817  0.02557082 -0.05715563
                   Y  0.30893252  0.28304702  0.12858992 -0.13795306  0.28170882
                   Z -0.30100965 -0.26938272 -0.12265350  0.12893195 -0.26648767
  6   C            X -0.00843452 -0.01094294  0.02083039 -0.01636324  0.00021079
                   Y  0.01248862  0.00801737 -0.01448657  0.01044059 -0.00030866
                   Z -0.00955115  0.02935120 -0.05436383  0.04745411 -0.00284017
  7   H            X  0.19448621  0.31985220 -0.16000854 -0.24353421 -0.22230646
                   Y  0.06318886  0.10482324 -0.05093320 -0.08073638 -0.07200553
                   Z  0.16382322  0.26119124 -0.12984657 -0.19988203 -0.18072068
  8   H            X  0.08533762 -0.10632240  0.04932679  0.09097386  0.08426705
                   Y  0.05780795 -0.07030608  0.02967978  0.06176652  0.05323429
                   Z -0.28989600  0.35239637 -0.16127645 -0.29440209 -0.26916411
  9   C            X  0.01021797 -0.00117071 -0.01214648  0.00063171  0.01756273
                   Y  0.01532494 -0.00314001 -0.02319344  0.00053687  0.03494551
                   Z  0.01873819  0.00456950  0.02836107 -0.00118010 -0.04894843
 10   H            X -0.23249492  0.22485111  0.27833970  0.33202388 -0.04206546
                   Y  0.10242351 -0.09805767 -0.12011499 -0.14338639  0.01610163
                   Z -0.16499125  0.15407454  0.19100381  0.22720113 -0.02818368
 11   H            X -0.10736915 -0.08052188 -0.09364846 -0.12519041  0.01112031
                   Y -0.06192168 -0.04434718 -0.05284962 -0.06870496  0.00927054
                   Z  0.33351772  0.24517956  0.28346042  0.37156164 -0.03282915
 12   H            X -0.01639161 -0.00408133 -0.01200687 -0.00243320  0.02615978
                   Y  0.00957312  0.00225409  0.00824659  0.00157032 -0.01142009
                   Z -0.27009053 -0.03898355 -0.22621817  0.01068480  0.41789683
 13   H            X -0.09423128  0.02104421  0.14965304 -0.00462157 -0.23096675
                   Y -0.16321293  0.03416524  0.25810456 -0.01024992 -0.39736641
                   Z  0.06800249 -0.01379612 -0.10229778  0.00353885  0.15852419
 14   H            X  0.01423874 -0.01774088  0.03100243 -0.02953196  0.00517097
                   Y -0.05208456  0.05840521 -0.11204120  0.10670399 -0.00589629
                   Z  0.17538986 -0.19801006  0.36939731 -0.34177266  0.02498080
 15   H            X  0.06993556  0.14620034 -0.26902851  0.22139193 -0.01050297
                   Y -0.07176035 -0.14981273  0.27831857 -0.22919110  0.00912449
                   Z -0.07128361 -0.14332648  0.26588604 -0.21939514  0.00950223
 16   BR           X -0.00000082  0.00000042  0.00000149 -0.00000029 -0.00000286
                   Y  0.00000341  0.00000035 -0.00000646  0.00000175  0.00000705
                   Z -0.00000067 -0.00000056  0.00000181 -0.00000122 -0.00000077
 17   H            X  0.00004205  0.00002013 -0.00012661  0.00009347  0.00013141
                   Y -0.00002195  0.00002173  0.00000603  0.00003759 -0.00008196
                   Z  0.00002197 -0.00000459 -0.00002003  0.00001706  0.00003436

 TRANS. SAYVETZ    X  0.00000002 -0.00000003  0.00000002 -0.00000002  0.00000002
                   Y  0.00000029 -0.00000002 -0.00000005 -0.00000001 -0.00000001
                   Z  0.00000019  0.00000003  0.00000003 -0.00000008  0.00000001
               TOTAL  0.00000035  0.00000005  0.00000006  0.00000008  0.00000002

   ROT. SAYVETZ    X -0.00000932 -0.00006335  0.00012117 -0.00010136 -0.00005733
                   Y  0.00004708 -0.00011319  0.00008928 -0.00013690  0.00006821
                   Z  0.00000784 -0.00001914  0.00000573  0.00001622  0.00001474
               TOTAL  0.00004863  0.00013111  0.00015062  0.00017111  0.00009031

                           51
       FREQUENCY:      3742.60  
        SYMMETRY:         A   
    REDUCED MASS:      1.10939
    IR INTENSITY:      0.25339

  1   C            X -0.00457452
                   Y  0.00627890
                   Z -0.03522974
  2   C            X -0.01167891
                   Y  0.01238844
                   Z -0.03617283
  3   C            X -0.00985564
                   Y -0.00123467
                   Z -0.03194466
  4   H            X  0.01729010
                   Y  0.11640256
                   Z  0.23862273
  5   H            X  0.03754690
                   Y -0.19200281
                   Z  0.18046382
  6   C            X  0.01064450
                   Y -0.00669509
                   Z -0.03292905
  7   H            X  0.18472191
                   Y  0.05975968
                   Z  0.15112352
  8   H            X -0.07245142
                   Y -0.04751906
                   Z  0.22930279
  9   C            X  0.01497535
                   Y  0.03005132
                   Z -0.04404537
 10   H            X  0.22845563
                   Y -0.09875640
                   Z  0.15695581
 11   H            X -0.09431218
                   Y -0.04860184
                   Z  0.27480001
 12   H            X  0.02546115
                   Y -0.00815768
                   Z  0.38652283
 13   H            X -0.19792071
                   Y -0.34136930
                   Z  0.13718673
 14   H            X  0.02412450
                   Y -0.07708921
                   Z  0.24562732
 15   H            X -0.14698821
                   Y  0.15140042
                   Z  0.14642129
 16   BR           X -0.00000233
                   Y  0.00000514
                   Z  0.00000064
 17   H            X  0.00008010
                   Y -0.00013514
                   Z -0.00001800

 TRANS. SAYVETZ    X -0.00000002
                   Y  0.00000001
                   Z  0.00000004
               TOTAL  0.00000004

   ROT. SAYVETZ    X  0.00000606
                   Y  0.00005817
                   Z -0.00000228
               TOTAL  0.00005853

 REFERENCE ON SAYVETZ CONDITIONS - A. SAYVETZ, J.CHEM.PHYS., 7, 383-389(1939).

 NOTE - THE MODES J,K ARE ORTHONORMALIZED ACCORDING TO
 SUM ON I   M(I) * (X(I,J)*X(I,K) + Y(I,J)*Y(I,K) + Z(I,J)*Z(I,K)) = DELTA(J,K)

  MODE FREQ(CM**-1)  SYMMETRY  RED. MASS  IR INTENS.
     1      16.243    A        1.920775    0.281673
     2       7.151    A        4.942903    0.001031
     3       5.695    A        4.684098    0.012704
     4       4.896    A        3.004815    0.010699
     5       0.029    A        8.824341    0.000000
     6       0.181    A        8.832386    0.000000
     7       0.344    A        8.821931    0.000000
     8      11.032    A        1.722566    0.024334
     9      24.747    A        2.682127    0.036345
    10      29.887    A        1.591255    0.344293
    11      39.285    A        3.554146    0.115428
    12      74.293    A        1.046392    0.917812
    13     254.985    A        1.613305    0.000158
    14     645.483    A        1.747197    0.041996
    15     731.883    A        2.648604    0.001352
    16     899.918    A        1.163861    0.013825
    17     961.293    A        1.502067    0.004288
    18    1009.847    A        1.832371    0.008539
    19    1051.234    A        3.647967    0.000311
    20    1093.510    A        1.951485    0.003900
    21    1096.303    A        1.992185    0.007353
    22    1163.997    A        1.211026    0.007548
    23    1195.295    A        1.212733    0.003344
    24    1250.352    A        1.423588    0.003045
    25    1281.792    A        1.611732    0.000970
    26    1444.418    A        1.354864    0.004749
    27    1447.269    A        1.460418    0.016992
    28    1470.592    A        1.461890    0.007952
    29    1494.749    A        1.319880    0.013316
    30    1520.266    A        1.105690    0.017604
    31    1577.247    A        1.343403    0.000338
    32    1612.103    A        1.589662    0.002897
    33    1647.512    A        1.585464    0.000144
    34    1660.152    A        1.583625    0.123755
    35    1661.354    A        1.579093    0.115042
    36    1821.843    A        1.090060    0.004820
    37    1822.767    A        1.087911    0.001265
    38    1836.549    A        1.124325    0.001462
    39    1837.744    A        1.126632    0.005725
    40    1855.804    A        1.125811    0.000741
    41    3130.916    A        1.020527    0.065320
    42    3609.927    A        1.064140    0.074110
    43    3612.509    A        1.064454    0.023030
    44    3615.663    A        1.067635    0.162038
    45    3617.250    A        1.067965    0.118598
    46    3624.216    A        1.072442    0.022715
    47    3729.547    A        1.114365    0.009094
    48    3731.796    A        1.113998    0.007858
    49    3735.215    A        1.110591    0.016299
    50    3736.831    A        1.110375    0.020240
    51    3742.601    A        1.109391    0.253394

     -------------------------------
     THERMOCHEMISTRY AT T=  298.15 K
     -------------------------------

 USING IDEAL GAS, RIGID ROTOR, HARMONIC NORMAL MODE APPROXIMATIONS.
 P=  1.01325E+05 PASCAL.
 ALL FREQUENCIES ARE SCALED BY   1.00000
 THE MOMENTS OF INERTIA ARE (IN AMU*BOHR**2)
            293.26653          3515.22406          3721.08615
 THE ROTATIONAL SYMMETRY NUMBER IS  1.0
 THE ROTATIONAL CONSTANTS ARE (IN GHZ)
      6.14829     0.51294     0.48456
   1 IMAGINARY FREQUENCY VIBRATION(S) IS(ARE) EXCLUDED
     FROM THE FOLLOWING THERMOCHEMICAL ANALYSIS.
      8 -     51 VIBRATIONAL MODES ARE USED IN THERMOCHEMISTRY.
 THE HARMONIC ZERO POINT ENERGY IS (SCALED BY   1.000)
        0.176357 HARTREE/MOLECULE    38705.986451 CM**-1/MOLECULE 
      110.666080 KCAL/MOL              463.026877 KJ/MOL

               Q               LN Q
 ELEC.     1.00000E+00       0.000000
 TRANS.    7.22120E+07      18.095117
 ROT.      7.01107E+05      13.460415
 VIB.      3.98463E+04      10.592785
 TOT.      2.01735E+18      42.148317

              E         H         G         CV        CP        S
           KJ/MOL    KJ/MOL    KJ/MOL   J/MOL-K   J/MOL-K   J/MOL-K
 ELEC.      0.000     0.000     0.000     0.000     0.000     0.000
 TRANS.     3.718     6.197   -44.857    12.472    20.786   171.236
 ROT.       3.718     3.718   -33.368    12.472    12.472   124.387
 VIB.     477.121   477.121   436.768    71.426    71.426   135.345
 TOTAL    484.558   487.037   358.544    96.370   104.684   430.968
 VIB. THERMAL CORRECTION E(T)-E(0) = H(T)-H(0) =     14094.075 J/MOL

              E         H         G         CV        CP        S
         KCAL/MOL  KCAL/MOL  KCAL/MOL CAL/MOL-K CAL/MOL-K CAL/MOL-K
 ELEC.      0.000     0.000     0.000     0.000     0.000     0.000
 TRANS.     0.889     1.481   -10.721     2.981     4.968    40.926
 ROT.       0.889     0.889    -7.975     2.981     2.981    29.729
 VIB.     114.035   114.035   104.390    17.071    17.071    32.348
 TOTAL    115.812   116.405    85.694    23.033    25.020   103.004
 VIB. THERMAL CORRECTION E(T)-E(0) = H(T)-H(0) =      3368.565 CAL/MOL

     *******************************************************
     * THIS IS NOT A STATIONARY POINT ON THE MOLECULAR PES *
     *     THE VIBRATIONAL ANALYSIS IS NOT VALID !!!       *
     *******************************************************
 ......END OF NORMAL COORDINATE ANALYSIS......
 STEP CPU TIME =     0.01 TOTAL CPU TIME =         85.8 (      1.4 MIN)
 TOTAL WALL CLOCK TIME=         86.1 SECONDS, CPU UTILIZATION IS    99.67%
               995759  WORDS OF DYNAMIC MEMORY USED
 EXECUTION OF GAMESS TERMINATED NORMALLY Sat Nov 13 16:42:22 2021
 DDI: 263640 bytes (0.3 MB / 0 MWords) used by master data server.

 ----------------------------------------
 CPU timing information for all processes
 ========================================
 0: 83.904 + 1.932 = 85.836
 ----------------------------------------
 ddikick.x: exited gracefully.
----- accounting info -----
Files used on the master node chemcompute-node-0.novalocal were:
-rw-r--r--. 1 chemcomp chemcomp     1210 Nov 13 16:40 /scratch/306036/341938.F05
-rw-rw-r--. 1 chemcomp chemcomp  6480576 Nov 13 16:42 /scratch/306036/341938.F08
-rw-rw-r--. 1 chemcomp chemcomp 85196800 Nov 13 16:42 /scratch/306036/341938.F10
-rw-rw-r--. 1 chemcomp chemcomp   628728 Nov 13 16:42 /scratch/306036/341938.F18
Sat Nov 13 16:42:25 UTC 2021
0.128u 0.096s 1:29.67 0.2%	0+0k 8+216io 0pf+0w
Finishing Up...
Looking for IR data...
Looking for Raman data...
vibramans not found
Looking for thermodynamics data...
Looking for UV-Vis data...
306036
