----- GAMESS execution script 'rungms' -----
This job is running on host chemcompute-node-0.novalocal
under operating system Linux at Sun Nov 14 01:22:40 UTC 2021
SLURM has assigned the following compute nodes to this run:
chemcompute-node-0
Available scratch disk space (Kbyte units) at beginning of the job is
Filesystem     1K-blocks     Used Available Use% Mounted on
/dev/sda1       62903276 16816240  46087036  27% /
GAMESS temporary binary files will be written to /scratch/306303
GAMESS supplementary output files will be written to /data/slurm/342211
Copying input file 342211.inp to your run's scratch directory...
The generated host list is
chemcompute-node-0.novalocal

 Distributed Data Interface kickoff program.
 Initiating 1 compute processes on 1 nodes to run the following command:
 /data/gamess-2019R1-ddi/gamess.00.x 342211 

          ******************************************************
          *         GAMESS VERSION = 30 JUN 2019 (R1)          *
          *             FROM IOWA STATE UNIVERSITY             *
          * M.W.SCHMIDT, K.K.BALDRIDGE, J.A.BOATZ, S.T.ELBERT, *
          *   M.S.GORDON, J.H.JENSEN, S.KOSEKI, N.MATSUNAGA,   *
          *          K.A.NGUYEN, S.J.SU, T.L.WINDUS,           *
          *       TOGETHER WITH M.DUPUIS, J.A.MONTGOMERY       *
          *         J.COMPUT.CHEM.  14, 1347-1363(1993)        *
          **************** 64 BIT LINUX VERSION ****************

  SINCE 1993, STUDENTS AND POSTDOCS WORKING AT IOWA STATE UNIVERSITY
  AND ALSO IN THEIR VARIOUS JOBS AFTER LEAVING ISU HAVE MADE IMPORTANT
  CONTRIBUTIONS TO THE CODE:
     IVANA ADAMOVIC, CHRISTINE AIKENS, YURI ALEXEEV, POOJA ARORA,
     ANDREY ASADCHEV, ROB BELL, PRADIPTA BANDYOPADHYAY, JONATHAN BENTZ,
     COLLEEN BERTONI, BRETT BODE, KURT BRORSEN, CALEB CARLIN, GALINA CHABAN,
     WEI CHEN, CHEOL HO CHOI, PAUL DAY, ALBERT DEFUSCO, NUWAN DESILVA,
     TIM DUDLEY, DMITRI FEDOROV, ALEX FINDLATER, GRAHAM FLETCHER, 
     MARK FREITAG, KURT GLAESEMANN, ANASTASIA GUNINA,
     DAN KEMP, GRANT MERRILL, NORIYUKI MINEZAWA, JONATHAN MULLIN,
     TAKESHI NAGATA, SEAN NEDD, HEATHER NETZLOFF, BOSILJKA NJEGIC, RYAN OLSON,
     MIKE PAK, BUU PHAM,
     SPENCER PRUITT, LUKE ROSKOP, JIM SHOEMAKER, LYUDMILA SLIPCHENKO,
     TONY SMITH, SAROM SOK LEANG, JIE SONG, TETSUYA TAKETSUGU, SIMON WEBB,
     PENG XU, SOOHAENG YOO, FEDERICO ZAHARIEV

  ADDITIONAL CODE HAS BEEN PROVIDED BY COLLABORATORS IN OTHER GROUPS:
     IOWA STATE UNIVERSITY:
          JOE IVANIC, AARON WEST, LAIMUTIS BYTAUTAS, KLAUS RUEDENBERG
     UNIVERSITY OF TOKYO: KIMIHIKO HIRAO, TAKAHITO NAKAJIMA,
          TAKAO TSUNEDA, MUNEAKI KAMIYA, SUSUMU YANAGISAWA,
          KIYOSHI YAGI, MAHITO CHIBA, SEIKEN TOKURA, NAOAKI KAWAKAMI
     UNIVERSITY OF AARHUS: FRANK JENSEN
     UNIVERSITY OF IOWA: VISVALDAS KAIRYS, HUI LI
     NATIONAL INST. OF STANDARDS AND TECHNOLOGY: WALT STEVENS, DAVID GARMER
     UNIVERSITY OF PISA: BENEDETTA MENNUCCI, JACOPO TOMASI
     UNIVERSITY OF MEMPHIS: HENRY KURTZ, PRAKASHAN KORAMBATH
     UNIVERSITY OF ALBERTA: TOBY ZENG, MARIUSZ KLOBUKOWSKI
     UNIVERSITY OF NEW ENGLAND: MARK SPACKMAN
     MIE UNIVERSITY: HIROAKI UMEDA
     NAT. INST. OF ADVANCED INDUSTRIAL SCIENCE AND TECHNOLOGY: KAZUO KITAURA
     MICHIGAN STATE UNIVERSITY:
          KAROL KOWALSKI, MARTA WLOCH, JEFFREY GOUR, JESSE LUTZ,
          WEI LI, JUN SHEN, J. EMILIANO DEUSTUA, PIOTR PIECUCH
     UNIVERSITY OF MINNESOTA:
          YINAN SHU
     UNIVERSITY OF SILESIA: MONIKA MUSIAL, STANISLAW KUCHARSKI
     FACULTES UNIVERSITAIRES NOTRE-DAME DE LA PAIX:
          OLIVIER QUINET, BENOIT CHAMPAGNE
     UNIVERSITY OF CALIFORNIA - SANTA BARBARA: BERNARD KIRTMAN
     INSTITUTE FOR MOLECULAR SCIENCE:
          KAZUYA ISHIMURA, MICHIO KATOUDA, AND SHIGERU NAGASE
     UNIVERSITY OF NOTRE DAME: ANNA POMOGAEVA, DAN CHIPMAN
     KYUSHU UNIVERSITY:
          HARUYUKI NAKANO,
          FENG LONG GU, JACEK KORCHOWIEC, MARCIN MAKOWSKI, AND YURIKO AOKI,
          HIROTOSHI MORI AND EISAKU MIYOSHI
     PENNSYLVANIA STATE UNIVERSITY:
          TZVETELIN IORDANOV, CHET SWALINA, JONATHAN SKONE,
          SHARON HAMMES-SCHIFFER
     WASEDA UNIVERSITY:
          MASATO KOBAYASHI, TOMOKO AKAMA, TSUGUKI TOUMA,
          TAKESHI YOSHIKAWA, YASUHIRO IKABATA, JUNJI SEINO,
          YUYA NAKAJIMA, HIROMI NAKAI
     NANJING UNIVERSITY: SHUHUA LI
     UNIVERSITY OF NEBRASKA:
          PEIFENG SU, DEJUN SI, NANDUN THELLAMUREGE, YALI WANG, HUI LI
     UNIVERSITY OF ZURICH: ROBERTO PEVERATI, KIM BALDRIDGE
     N. COPERNICUS UNIVERSITY AND JACKSON STATE UNIVERSITY:
          MARIA BARYSZ
     UNIVERSITY OF COPENHAGEN: Jimmy Kromann, CASPER STEINMANN
     TOKYO INSTITUTE OF TECHNOLOGY: HIROYA NAKATA
     NAGOYA UNIVERSITY: YOSHIO NISHIMOTO, STEPHAN IRLE
     MOSCOW STATE UNIVERSITY: VLADIMIR MIRONOV
     A.N.NESMEYANOV INSTITUTE OF ORGANOELEMENT COMPOUNDS OF RUSSIAN ACADEMY OF SCIENCES:
          IGOR S. GERASIMOV

 EXECUTION OF GAMESS BEGUN Sun Nov 14 01:22:41 2021

            ECHO OF THE FIRST FEW INPUT CARDS -
 INPUT CARD>!File created by the GAMESS Input Deck Generator Plugin for Avogadro            
 INPUT CARD> $BASIS GBASIS=STO NGAUSS=3 $END                                                
 INPUT CARD> $CONTRL SCFTYP=RHF RUNTYP=OPTIMIZE NZVAR=1 mult=1  ICHARG=0 $END               
 INPUT CARD> $STATPT hssend=.t. OPTTOL=0.0005 NSTEP=50 $END                                 
 INPUT CARD> $STATPT HESS=calc ihrep=5 $END                                                 
 INPUT CARD> $FORCE nvib=2 $END                                                             
 INPUT CARD> $ZMAT DLC=.t. auto=.t. nonvdw(1)=2,12,3,13 $END                                
 INPUT CARD> $ZMAT IFZMAT(1)=1,2,12,1,3,13 fvalue(1)=2.00,2.00 $END                         
 INPUT CARD>                                                                                
 INPUT CARD> $DATA                                                                          
 INPUT CARD>Title                                                                           
 INPUT CARD>C1                                                                              
 INPUT CARD>C     6.0    -1.12403    -0.42715     0.70209                                   
 INPUT CARD>C     6.0    -1.70486     0.76740    -0.10008                                   
 INPUT CARD>C     6.0    -0.55688     1.41477    -0.71345                                   
 INPUT CARD>C     6.0     0.71125     0.86555    -0.12546                                   
 INPUT CARD>C     6.0     0.28842    -0.56978     0.12727                                   
 INPUT CARD>H     1.0    -1.68371    -1.37786     0.57322                                   
 INPUT CARD>H     1.0    -1.08203    -0.18401     1.78562                                   
 INPUT CARD>H     1.0     0.91212     1.35747     0.85239                                   
 INPUT CARD>H     1.0     1.59809     0.96422    -0.78590                                   
 INPUT CARD>H     1.0     0.98292    -1.16671     0.75521                                   
 INPUT CARD>H     1.0     0.20351    -1.06734    -0.86752                                   
 INPUT CARD>B     5.0    -2.07177     2.17586     1.04543                                   
 INPUT CARD>H     1.0    -0.97085     2.60894     0.30531                                   
 INPUT CARD>H     1.0    -1.86568     2.02331     2.20468                                   
 INPUT CARD>H     1.0    -3.05432     2.81619     0.85893                                   
 INPUT CARD>H     1.0    -0.60778     1.97488    -1.64998                                   
 INPUT CARD>C     6.0    -2.97800     0.58813    -0.98619                                   
 INPUT CARD>H     1.0    -3.25966    -0.48445    -1.02432                                   
 INPUT CARD>H     1.0    -2.78690     0.92392    -2.02722                                   
 INPUT CARD>H     1.0    -3.85782     1.14472    -0.60173                                   
 INPUT CARD> $END                                                                           
    1000000 WORDS OF MEMORY AVAILABLE

     BASIS OPTIONS
     -------------
     GBASIS=STO          IGAUSS=       3      POLAR=NONE    
     NDFUNC=       0     NFFUNC=       0     DIFFSP=       F
     NPFUNC=       0      DIFFS=       F     BASNAM=        


     RUN TITLE
     ---------
 Title                                                                           

 THE POINT GROUP OF THE MOLECULE IS C1      
 THE ORDER OF THE PRINCIPAL AXIS IS     0

 ATOM      ATOMIC                      COORDINATES (BOHR)
           CHARGE         X                   Y                   Z
 C           6.0    -2.1241087020       -0.8071964557        1.3267577187
 C           6.0    -3.2217182474        1.4501757230       -0.1891237769
 C           6.0    -1.0523506080        2.6735276356       -1.3482250059
 C           6.0     1.3440676088        1.6356523287       -0.2370850224
 C           6.0     0.5450347694       -1.0767280733        0.2405054265
 H           1.0    -3.1817505428       -2.6037778494        1.0832287307
 H           1.0    -2.0447402105       -0.3477284790        3.3743325182
 H           1.0     1.7236568679        2.5652463366        1.6107835347
 H           1.0     3.0199522037        1.8221115919       -1.4851356538
 H           1.0     1.8574494679       -2.2047622071        1.4271399632
 H           1.0     0.3845781358       -2.0169801357       -1.6393750889
 B           5.0    -3.9150776096        4.1117791876        1.9755762393
 H           1.0    -1.8346404752        4.9301817184        0.5769522413
 H           1.0    -3.5256239808        3.8235014882        4.1662410906
 H           1.0    -5.7718278788        5.3218274294        1.6231423426
 H           1.0    -1.1485376608        3.7319820586       -3.1180100852
 C           6.0    -5.6276039914        1.1114045452       -1.8636288718
 H           1.0    -6.1598642131       -0.9154777548       -1.9356841237
 H           1.0    -5.2664773552        1.7459556346       -3.8308903168
 H           1.0    -7.2902227100        2.1632071327       -1.1371048186

          INTERNUCLEAR DISTANCES (ANGS.)
          ------------------------------

                1 C          2 C          3 C          4 C          5 C     

   1 C       0.0000000    1.5517055 *  2.3912511 *  2.3925227 *  1.5315927 *
   2 C       1.5517055 *  0.0000000    1.4536742 *  2.4182359 *  2.4109964 *
   3 C       2.3912511 *  1.4536742 *  0.0000000    1.5018417 *  2.3151201 *
   4 C       2.3925227 *  2.4182359 *  1.5018417 *  0.0000000    1.5175078 *
   5 C       1.5315927 *  2.4109964 *  2.3151201 *  1.5175078 *  0.0000000  
   6 H       1.1107199 *  2.2485375 *  3.2747592    3.3551268    2.1774208 *
   7 H       1.1112688 *  2.2020360 *  3.0128443    2.8230579 *  2.1856524 *
   8 H       2.7117090 *  2.8467466 *  2.1478127 *  1.1128902 *  2.1515328 *
   9 H       3.3999944    3.3791369    2.2027574 *  1.1101360 *  2.2141073 *
  10 H       2.2336090 *  3.4200093    3.3454425    2.2314715 *  1.1103893 *
  11 H       2.1531097 *  2.7562857 *  2.6005385 *  2.1317872 *  1.1155191 *
  12 B       2.7913714 *  1.8521813 *  2.4429099 *  3.2913669    3.7352448  
  13 H       3.0657366    2.0234578 *  1.6233561 *  2.4605755 *  3.4236998  
  14 H       2.9685983 *  2.6296562 *  3.2555738    3.6620389    3.9597847  
  15 H       3.7775485    2.6340621 *  3.2670420    4.3535661    4.8139412  
  16 H       3.4012491    2.2502850 *  1.0924296 *  2.3010029 *  3.2306480  
  17 C       2.7052334 *  1.5614782 *  2.5728472 *  3.7984712    3.6400616  
  18 H       2.7467600 *  2.1997161 *  3.3179356    4.2893561    3.7312615  
  19 H       3.4698213    2.2156664 *  2.6343718 *  3.9821039    4.0411088  
  20 H       3.4123789    2.2426011 *  3.3138517    4.6023005    4.5455756  

                6 H          7 H          8 H          9 H         10 H     

   1 C       1.1107199 *  1.1112688 *  2.7117090 *  3.3999944    2.2336090 *
   2 C       2.2485375 *  2.2020360 *  2.8467466 *  3.3791369    3.4200093  
   3 C       3.2747592    3.0128443    2.1478127 *  2.2027574 *  3.3454425  
   4 C       3.3551268    2.8230579 *  1.1128902 *  1.1101360 *  2.2314715 *
   5 C       2.1774208 *  2.1856524 *  2.1515328 *  2.2141073 *  1.1103893 *
   6 H       0.0000000    1.8047743 *  3.7813092    4.2547335    2.6811602 *
   7 H       1.8047743 *  0.0000000    2.6876966 *  3.8876973    2.5082788 *
   8 H       3.7813092    2.6876966 *  0.0000000    1.8191192 *  2.5270420 *
   9 H       4.2547335    3.8876973    1.8191192 *  0.0000000    2.7007993 *
  10 H       2.6811602 *  2.5082788 *  2.5270420 *  2.7007993 *  0.0000000  
  11 H       2.3945258 *  3.0776674    3.0561286    2.4655124 *  1.8029440 *
  12 B       3.6058978    2.6639168 *  3.1001010    4.2766475    4.5374148  
  13 H       4.0588815    3.1629493    2.3261663 *  3.2396444    4.2749456  
  14 H       3.7766033    2.3794916 *  3.1604120    4.6971207    4.5157184  
  15 H       4.4215673    3.7080834    4.2261748    5.2706904    5.6721739  
  16 H       4.1642657    4.0852254    2.9921809 *  2.5756417 *  4.2643702  
  17 C       2.8234842 *  3.4458429    4.3709603    4.5958851    4.6691353  
  18 H       2.4153538 *  3.5676462    4.9313749    5.0747634    4.6509882  
  19 H       3.6438314    4.3210924    4.7077456    4.5574814    5.1307108  
  20 H       3.5313838    3.8948650    4.9911978    5.4620008    5.5332412  

               11 H         12 B         13 H         14 H         15 H     

   1 C       2.1531097 *  2.7913714 *  3.0657366    2.9685983 *  3.7775485  
   2 C       2.7562857 *  1.8521813 *  2.0234578 *  2.6296562 *  2.6340621 *
   3 C       2.6005385 *  2.4429099 *  1.6233561 *  3.2555738    3.2670420  
   4 C       2.1317872 *  3.2913669    2.4605755 *  3.6620389    4.3535661  
   5 C       1.1155191 *  3.7352448    3.4236998    3.9597847    4.8139412  
   6 H       2.3945258 *  3.6058978    4.0588815    3.7766033    4.4215673  
   7 H       3.0776674    2.6639168 *  3.1629493    2.3794916 *  3.7080834  
   8 H       3.0561286    3.1001010    2.3261663 *  3.1604120    4.2261748  
   9 H       2.4655124 *  4.2766475    3.2396444    4.6971207    5.2706904  
  10 H       1.8029440 *  4.5374148    4.2749456    4.5157184    5.6721739  
  11 H       0.0000000    4.3993889    4.0335699    4.8241142    5.3549875  
  12 B       4.3993889    0.0000000    1.3954787 *  1.1872679 *  1.1875223 *
  13 H       4.0335699    1.3954787 *  0.0000000    2.1797453 *  2.1657089 *
  14 H       4.8241142    1.1872679 *  2.1797453 *  0.0000000    1.9627957 *
  15 H       5.3549875    1.1875223 *  2.1657089 *  1.9627957 *  0.0000000  
  16 H       3.2443085    3.0739055    2.0873454 *  4.0550045    3.6038854  
  17 C       3.5884076    2.7330604 *  3.1273465    3.6713279    2.8938804 *
  18 H       3.5153796    3.5738211    4.0713178    4.3195464    3.8056562  
  19 H       3.7752579    3.3941041    3.4026499    4.4683646    3.4615114  
  20 H       4.6323056    2.6393864 *  3.3617343    3.5519684    2.3607100 *

               16 H         17 C         18 H         19 H         20 H     

   1 C       3.4012491    2.7052334 *  2.7467600 *  3.4698213    3.4123789  
   2 C       2.2502850 *  1.5614782 *  2.1997161 *  2.2156664 *  2.2426011 *
   3 C       1.0924296 *  2.5728472 *  3.3179356    2.6343718 *  3.3138517  
   4 C       2.3010029 *  3.7984712    4.2893561    3.9821039    4.6023005  
   5 C       3.2306480    3.6400616    3.7312615    4.0411088    4.5455756  
   6 H       4.1642657    2.8234842 *  2.4153538 *  3.6438314    3.5313838  
   7 H       4.0852254    3.4458429    3.5676462    4.3210924    3.8948650  
   8 H       2.9921809 *  4.3709603    4.9313749    4.7077456    4.9911978  
   9 H       2.5756417 *  4.5958851    5.0747634    4.5574814    5.4620008  
  10 H       4.2643702    4.6691353    4.6509882    5.1307108    5.5332412  
  11 H       3.2443085    3.5884076    3.5153796    3.7752579    4.6323056  
  12 B       3.0739055    2.7330604 *  3.5738211    3.3941041    2.6393864 *
  13 H       2.0873454 *  3.1273465    4.0713178    3.4026499    3.3617343  
  14 H       4.0550045    3.6713279    4.3195464    4.4683646    3.5519684  
  15 H       3.6038854    2.8938804 *  3.8056562    3.4615114    2.3607100 *
  16 H       0.0000000    2.8251789 *  3.6704526    2.4485487 *  3.5143639  
  17 C       2.8251789 *  0.0000000    1.1096009 *  1.1104133 *  1.1098131 *
  18 H       3.6704526    1.1096009 *  0.0000000    1.7924331 *  1.7862174 *
  19 H       2.4485487 *  1.1104133 *  1.7924331 *  0.0000000    1.7965645 *
  20 H       3.5143639    1.1098131 *  1.7862174 *  1.7965645 *  0.0000000  

  * ... LESS THAN  3.000


     ATOMIC BASIS SET
     ----------------
 THE CONTRACTED PRIMITIVE FUNCTIONS HAVE BEEN UNNORMALIZED
 THE CONTRACTED BASIS FUNCTIONS ARE NOW NORMALIZED TO UNITY

  SHELL TYPE  PRIMITIVE        EXPONENT          CONTRACTION COEFFICIENT(S)

 C         

      1   S       1            71.6168373    0.154328967295
      1   S       2            13.0450963    0.535328142282
      1   S       3             3.5305122    0.444634542185

      2   L       4             2.9412494   -0.099967229187    0.155916274999
      2   L       5             0.6834831    0.399512826089    0.607683718598
      2   L       6             0.2222899    0.700115468880    0.391957393099

 C         

      3   S       7            71.6168373    0.154328967295
      3   S       8            13.0450963    0.535328142282
      3   S       9             3.5305122    0.444634542185

      4   L      10             2.9412494   -0.099967229187    0.155916274999
      4   L      11             0.6834831    0.399512826089    0.607683718598
      4   L      12             0.2222899    0.700115468880    0.391957393099

 C         

      5   S      13            71.6168373    0.154328967295
      5   S      14            13.0450963    0.535328142282
      5   S      15             3.5305122    0.444634542185

      6   L      16             2.9412494   -0.099967229187    0.155916274999
      6   L      17             0.6834831    0.399512826089    0.607683718598
      6   L      18             0.2222899    0.700115468880    0.391957393099

 C         

      7   S      19            71.6168373    0.154328967295
      7   S      20            13.0450963    0.535328142282
      7   S      21             3.5305122    0.444634542185

      8   L      22             2.9412494   -0.099967229187    0.155916274999
      8   L      23             0.6834831    0.399512826089    0.607683718598
      8   L      24             0.2222899    0.700115468880    0.391957393099

 C         

      9   S      25            71.6168373    0.154328967295
      9   S      26            13.0450963    0.535328142282
      9   S      27             3.5305122    0.444634542185

     10   L      28             2.9412494   -0.099967229187    0.155916274999
     10   L      29             0.6834831    0.399512826089    0.607683718598
     10   L      30             0.2222899    0.700115468880    0.391957393099

 H         

     11   S      31             3.4252509    0.154328967295
     11   S      32             0.6239137    0.535328142282
     11   S      33             0.1688554    0.444634542185

 H         

     12   S      34             3.4252509    0.154328967295
     12   S      35             0.6239137    0.535328142282
     12   S      36             0.1688554    0.444634542185

 H         

     13   S      37             3.4252509    0.154328967295
     13   S      38             0.6239137    0.535328142282
     13   S      39             0.1688554    0.444634542185

 H         

     14   S      40             3.4252509    0.154328967295
     14   S      41             0.6239137    0.535328142282
     14   S      42             0.1688554    0.444634542185

 H         

     15   S      43             3.4252509    0.154328967295
     15   S      44             0.6239137    0.535328142282
     15   S      45             0.1688554    0.444634542185

 H         

     16   S      46             3.4252509    0.154328967295
     16   S      47             0.6239137    0.535328142282
     16   S      48             0.1688554    0.444634542185

 B         

     17   S      49            48.7911132    0.154328967295
     17   S      50             8.8873622    0.535328142282
     17   S      51             2.4052670    0.444634542185

     18   L      52             2.2369561   -0.099967229187    0.155916274999
     18   L      53             0.5198205    0.399512826089    0.607683718598
     18   L      54             0.1690618    0.700115468880    0.391957393099

 H         

     19   S      55             3.4252509    0.154328967295
     19   S      56             0.6239137    0.535328142282
     19   S      57             0.1688554    0.444634542185

 H         

     20   S      58             3.4252509    0.154328967295
     20   S      59             0.6239137    0.535328142282
     20   S      60             0.1688554    0.444634542185

 H         

     21   S      61             3.4252509    0.154328967295
     21   S      62             0.6239137    0.535328142282
     21   S      63             0.1688554    0.444634542185

 H         

     22   S      64             3.4252509    0.154328967295
     22   S      65             0.6239137    0.535328142282
     22   S      66             0.1688554    0.444634542185

 C         

     23   S      67            71.6168373    0.154328967295
     23   S      68            13.0450963    0.535328142282
     23   S      69             3.5305122    0.444634542185

     24   L      70             2.9412494   -0.099967229187    0.155916274999
     24   L      71             0.6834831    0.399512826089    0.607683718598
     24   L      72             0.2222899    0.700115468880    0.391957393099

 H         

     25   S      73             3.4252509    0.154328967295
     25   S      74             0.6239137    0.535328142282
     25   S      75             0.1688554    0.444634542185

 H         

     26   S      76             3.4252509    0.154328967295
     26   S      77             0.6239137    0.535328142282
     26   S      78             0.1688554    0.444634542185

 H         

     27   S      79             3.4252509    0.154328967295
     27   S      80             0.6239137    0.535328142282
     27   S      81             0.1688554    0.444634542185

 TOTAL NUMBER OF BASIS SET SHELLS             =   27
 NUMBER OF CARTESIAN GAUSSIAN BASIS FUNCTIONS =   48
 NUMBER OF ELECTRONS                          =   54
 CHARGE OF MOLECULE                           =    0
 SPIN MULTIPLICITY                            =    1
 NUMBER OF OCCUPIED ORBITALS (ALPHA)          =   27
 NUMBER OF OCCUPIED ORBITALS (BETA )          =   27
 TOTAL NUMBER OF ATOMS                        =   20
 THE NUCLEAR REPULSION ENERGY IS      305.9014627996

     $CONTRL OPTIONS
     ---------------
 SCFTYP=RHF          RUNTYP=OPTIMIZE     EXETYP=RUN     
 MPLEVL=       0     CITYP =NONE         CCTYP =NONE         VBTYP =NONE    
 DFTTYP=NONE         TDDFT =NONE    
 MULT  =       1     ICHARG=       0     NZVAR =       1     COORD =UNIQUE  
 PP    =NONE         RELWFN=NONE         LOCAL =NONE         NUMGRD=       F
 ISPHER=      -1     NOSYM =       0     MAXIT =      30     UNITS =ANGS    
 PLTORB=       F     MOLPLT=       F     AIMPAC=       F     FRIEND=        
 NPRINT=       7     IREST =       0     GEOM  =INPUT   
 NORMF =       0     NORMP =       0     ITOL  =      20     ICUT  =       9
 INTTYP=BEST         GRDTYP=BEST         QMTTOL= 1.0E-06

     $SYSTEM OPTIONS
     ---------------
  REPLICATED MEMORY=     1000000 WORDS (ON EVERY NODE).
 DISTRIBUTED MEMDDI=           0 MILLION WORDS IN AGGREGATE,
 MEMDDI DISTRIBUTED OVER   1 PROCESSORS IS           0 WORDS/PROCESSOR.
 TOTAL MEMORY REQUESTED ON EACH PROCESSOR=     1000000 WORDS.
 TIMLIM=      525600.00 MINUTES, OR     365.0 DAYS.
 PARALL= F  BALTYP=  DLB     KDIAG=    0  COREFL= F
 MXSEQ2=     300 MXSEQ3=     150  mem10=         0

          ----------------
          PROPERTIES INPUT
          ----------------

     MOMENTS            FIELD           POTENTIAL          DENSITY
 IEMOM =       1   IEFLD =       0   IEPOT =       0   IEDEN =       0
 WHERE =COMASS     WHERE =NUCLEI     WHERE =NUCLEI     WHERE =NUCLEI  
 OUTPUT=BOTH       OUTPUT=BOTH       OUTPUT=BOTH       OUTPUT=BOTH    
 IEMINT=       0   IEFINT=       0                     IEDINT=       0
                                                       MORB  =       0
          EXTRAPOLATION IN EFFECT
          SOSCF IN EFFECT
 ORBITAL PRINTING OPTION: NPREO=     1    48     2     1

     -------------------------------
     INTEGRAL TRANSFORMATION OPTIONS
     -------------------------------
     NWORD  =            0
     CUTOFF = 1.0E-09     MPTRAN =       0
     DIRTRF =       F     AOINTS =DUP     

          ----------------------
          INTEGRAL INPUT OPTIONS
          ----------------------
 NOPK  =       1 NORDER=       0 SCHWRZ=       T


 -----------------------------------------------
  STATISTICS ON AUTOMATIC COORDINATE GENERATION 
 -----------------------------------------------
  NUMBER OF USER SPECIFIED BONDS                             2
  NUMBER OF BONDS                                           21
  NUMBER OF ANGLES                                          44
  NUMBER OF TORSIONS                                        60
  NUMBER OF EXTRA COORD.                                     0
  NUMBER OF EXTRA COORD. FOR CONSTRAINTS                     0
  NUMBER OF CONSTRAINED COORD.                               2

  TOTAL NUMBER OF PRIMITIVES                               125
 -----------------------------------------------

   --- ENCODED Z MATRIX ---
 COORD  TYPE   I   J   K   L   M   N
    1      1    2  12
    2      1    3  13
    3      1    1   7
    4      1    1   5
    5      1    1   2
    6      1    1   6
    7      1    2  12
    8      1    2  17
    9      1    2   3
   10      1    3  16
   11      1    3   4
   12      1    4   5
   13      1    4   9
   14      1    4   8
   15      1    5  11
   16      1    5  10
   17      1   12  15
   18      1   12  14
   19      1   17  20
   20      1   17  19
   21      1   17  18
   22      2    1   5  10
   23      2    1   2  12
   24      2    1   5   4
   25      2    1   5  11
   26      2    1   2  12
   27      2    1   2  17
   28      2    1   2   3
   29      2    2  17  20
   30      2    2  17  18
   31      2    2  17  19
   32      2    2   1   5
   33      2    2   3  16
   34      2    2  12  15
   35      2    2   3  13
   36      2    2  12  14
   37      2    2   1   7
   38      2    2  12  14
   39      2    2   1   6
   40      2    2  12  15
   41      2    2   3   4
   42      2    3   2  12
   43      2    3   2  12
   44      2    3   2  17
   45      2    3   4   8
   46      2    3   4   9
   47      2    3   4   5
   48      2    4   3  13
   49      2    4   3  16
   50      2    4   5  10
   51      2    4   5  11
   52      2    5   1   7
   53      2    5   1   6
   54      2    5   4   8
   55      2    5   4   9
   56      2    6   1   7
   57      2    8   4   9
   58      2   10   5  11
   59      2   12   2  17
   60      2   12   2  17
   61      2   13   3  16
   62      2   14  12  15
   63      2   18  17  19
   64      2   18  17  20
   65      2   19  17  20
   66      3    1   2  12  15
   67      3    1   2  17  18
   68      3    1   5   4   8
   69      3    1   2  17  19
   70      3    1   5   4   9
   71      3    1   2  17  20
   72      3    1   5   4   3
   73      3    1   2   3  13
   74      3    1   2   3   4
   75      3    1   2   3  16
   76      3    1   2  12  14
   77      3    2   3   4   8
   78      3    2   3   4   9
   79      3    2   3   4   5
   80      3    2   1   5   4
   81      3    2   1   5  11
   82      3    2   1   5  10
   83      3    3   2   1   6
   84      3    3   2  12  15
   85      3    3   2   1   5
   86      3    3   2   1   7
   87      3    3   4   5  10
   88      3    3   4   5  11
   89      3    3   2  17  19
   90      3    3   2  17  18
   91      3    3   2  17  20
   92      3    3   2  12  14
   93      3    4   5   1   6
   94      3    4   3   2  17
   95      3    4   3   2  12
   96      3    4   5   1   7
   97      3    5   4   3  13
   98      3    5   4   3  16
   99      3    5   1   2  17
  100      3    5   1   2  12
  101      3    6   1   5  10
  102      3    6   1   2  12
  103      3    6   1   2  17
  104      3    6   1   5  11
  105      3    7   1   5  10
  106      3    7   1   5  11
  107      3    7   1   2  17
  108      3    7   1   2  12
  109      3    8   4   5  10
  110      3    8   4   3  13
  111      3    8   4   3  16
  112      3    8   4   5  11
  113      3    9   4   5  11
  114      3    9   4   5  10
  115      3    9   4   3  13
  116      3    9   4   3  16
  117      3   12   2   3  13
  118      3   12   2   3  16
  119      3   12   2  17  19
  120      3   12   2  17  18
  121      3   12   2  17  20
  122      3   13   3   2  17
  123      3   14  12   2  17
  124      3   15  12   2  17
  125      3   16   3   2  17

          INDEP./SYM. INTERNAL COORDINATES
          --------------------------------
 CRD  1=   1.0000 (  1)
 CRD  2=   1.0000 (  2)
 CRD  3=  -0.4285 (  8)  0.1567 ( 23)  0.1595 ( 24) -0.1003 ( 25)  0.1567 ( 26)
          -0.1384 ( 30) -0.1954 ( 31) -0.1866 ( 32) -0.1032 ( 34)  0.1067 ( 36)
           0.1019 ( 37)  0.1067 ( 38) -0.1032 ( 40) -0.1016 ( 44)  0.1181 ( 45)
          -0.1476 ( 47)  0.1424 ( 52)  0.1309 ( 63)  0.1147 ( 65) -0.1014 ( 78)
           0.1046 ( 82) -0.1368 ( 92)  0.1533 ( 94)  0.2465 ( 95) -0.1701 ( 99)
          -0.2142 (100) -0.1039 (108)  0.1496 (117)  0.1363 (118)
 CRD  4=   0.1369 (  4)  0.2743 (  5) -0.4338 (  9) -0.1085 ( 11)  0.1316 ( 23)
          -0.1135 ( 24)  0.1316 ( 26)  0.1050 ( 27)  0.1612 ( 30) -0.1030 ( 33)
          -0.2368 ( 35)  0.1128 ( 41) -0.1709 ( 42) -0.1709 ( 43) -0.1589 ( 66)
           0.1000 ( 71)  0.1100 ( 77)  0.1289 ( 78)  0.1071 ( 79) -0.1032 ( 84)
           0.1108 ( 90)  0.1524 ( 91) -0.1341 ( 94) -0.1036 ( 97)  0.1353 (100)
           0.1246 (102) -0.1007 (110)  0.1473 (118) -0.1839 (119) -0.1494 (120)
          -0.1078 (121) -0.1120 (122)  0.1493 (123)
 CRD  5=  -0.1806 (  4) -0.1930 (  5) -0.5282 (  8) -0.1310 (  9) -0.1698 ( 24)
          -0.3803 ( 29)  0.1427 ( 32) -0.1197 ( 37) -0.1517 ( 41) -0.1272 ( 45)
           0.1347 ( 47)  0.1137 ( 49)  0.1134 ( 50)  0.1883 ( 64)  0.1674 ( 65)
          -0.1155 ( 69) -0.1363 ( 94)  0.1090 ( 99) -0.1235 (122)
 CRD  6=   0.1373 (  4) -0.2413 (  5) -0.1922 ( 11)  0.2596 ( 24) -0.3118 ( 29)
           0.2097 ( 30)  0.1171 ( 31) -0.2004 ( 32) -0.1214 ( 33)  0.2066 ( 41)
          -0.3041 ( 47) -0.1142 ( 48) -0.1095 ( 50) -0.1189 ( 51)  0.2081 ( 53)
           0.1281 ( 54)  0.1516 ( 55) -0.1114 ( 57)  0.1050 ( 58)  0.1035 ( 62)
           0.1057 ( 90) -0.1342 ( 94) -0.1218 ( 95)  0.1537 ( 99)  0.1083 (100)
           0.1127 (107)
 CRD  7=   0.1529 (  4) -0.3397 (  5) -0.1413 (  6) -0.2151 (  9)  0.3312 ( 11)
           0.1197 ( 13)  0.1122 ( 22)  0.1562 ( 32) -0.1646 ( 33) -0.2867 ( 35)
          -0.1677 ( 39)  0.1602 ( 41)  0.1118 ( 45)  0.1241 ( 46) -0.1830 ( 47)
           0.1825 ( 48)  0.1012 ( 51)  0.1187 ( 68)  0.1160 ( 80)  0.1187 ( 96)
          -0.2112 ( 97) -0.1211 (110) -0.1831 (115)
 CRD  8=  -0.1035 (  9) -0.3816 ( 11) -0.1807 ( 12)  0.1338 ( 22) -0.1034 ( 25)
          -0.1952 ( 30)  0.2993 ( 31)  0.1943 ( 33) -0.1005 ( 36) -0.1005 ( 38)
          -0.1895 ( 46) -0.2285 ( 49) -0.1240 ( 50)  0.1463 ( 51)  0.1030 ( 52)
          -0.1531 ( 54)  0.1138 ( 62) -0.1075 ( 65)  0.1679 ( 73)  0.1466 ( 74)
          -0.1442 ( 85) -0.1160 ( 88)  0.1015 ( 93)  0.1222 ( 96)
 CRD  9=   0.3810 (  4)  0.1668 (  5)  0.1334 (  6)  0.1997 ( 12)  0.1376 ( 16)
          -0.1121 ( 21) -0.4564 ( 30)  0.3442 ( 31) -0.1744 ( 33)  0.1145 ( 34)
           0.1145 ( 40)  0.1189 ( 41) -0.1207 ( 45)  0.1043 ( 54)  0.1832 ( 64)
          -0.1549 ( 65) -0.1266 ( 80)  0.1004 ( 86)  0.1178 ( 88)
 CRD 10=   0.2619 (  4) -0.2667 (  5) -0.2678 ( 11) -0.2395 ( 12) -0.1238 ( 20)
           0.1144 ( 22) -0.1203 ( 24)  0.1400 ( 25)  0.2813 ( 29) -0.3812 ( 31)
          -0.1227 ( 37) -0.1289 ( 45) -0.1626 ( 48) -0.1153 ( 49)  0.1142 ( 61)
           0.1485 ( 63) -0.1324 ( 64)  0.1320 ( 73) -0.1009 ( 82)  0.1180 ( 88)
          -0.1106 (101)  0.1191 (106)  0.1456 (117)  0.1465 (122)
 CRD 11=   0.2838 (  4)  0.1556 (  5) -0.1100 (  8)  0.2136 (  9) -0.1268 ( 12)
          -0.1123 ( 29) -0.1043 ( 32)  0.3300 ( 33)  0.2149 ( 34) -0.1972 ( 35)
           0.2149 ( 40)  0.2756 ( 48) -0.2910 ( 49) -0.1451 ( 62) -0.2442 ( 73)
          -0.1090 ( 87) -0.2634 (117) -0.1988 (122)
 CRD 12=  -0.1926 (  4) -0.1565 (  9) -0.5853 ( 12) -0.1052 ( 13) -0.1628 ( 16)
           0.1644 ( 24) -0.2246 ( 30)  0.1326 ( 31) -0.1299 ( 33)  0.1277 ( 37)
           0.1404 ( 46)  0.1305 ( 49) -0.1147 ( 50) -0.1739 ( 51) -0.1077 ( 52)
          -0.1772 ( 55)  0.1154 ( 58) -0.1067 ( 70) -0.1169 ( 78)  0.1201 ( 81)
           0.1040 ( 83)  0.1030 ( 85)  0.1154 (104)  0.1019 (111) -0.1181 (115)
 CRD 13=   0.1540 (  5)  0.1452 ( 12) -0.1015 ( 17) -0.1464 ( 18)  0.2073 ( 19)
          -0.1323 ( 21)  0.3814 ( 29) -0.2751 ( 30) -0.1850 ( 31) -0.1544 ( 34)
          -0.2421 ( 36)  0.1151 ( 37) -0.2421 ( 38) -0.1544 ( 40)  0.2793 ( 62)
           0.2425 ( 63) -0.1064 ( 65) -0.1422 ( 94)  0.1081 ( 99) -0.1670 (122)
 CRD 14=   0.3106 (  4)  0.1282 ( 10)  0.2625 ( 11) -0.1579 ( 12) -0.1063 ( 18)
           0.1911 ( 22)  0.1403 ( 28) -0.1305 ( 34)  0.1631 ( 35) -0.1162 ( 36)
          -0.1162 ( 38) -0.1305 ( 40) -0.1423 ( 41) -0.1009 ( 42) -0.1009 ( 43)
           0.1011 ( 45)  0.1212 ( 47)  0.2193 ( 49) -0.1715 ( 50)  0.1246 ( 52)
           0.1034 ( 53) -0.1374 ( 54) -0.1054 ( 55) -0.1431 ( 61)  0.1948 ( 62)
           0.1333 ( 68)  0.1283 ( 74)  0.1079 ( 75) -0.1209 ( 78) -0.1105 ( 83)
          -0.1162 ( 87)  0.1108 (107)  0.1441 (110)  0.1306 (112) -0.1281 (114)
 CRD 15=  -0.1532 (  3) -0.1287 (  4) -0.1515 (  8)  0.2062 ( 17) -0.2167 ( 18)
          -0.1673 ( 25) -0.1743 ( 31)  0.3250 ( 34) -0.2408 ( 36) -0.1180 ( 37)
          -0.2408 ( 38)  0.1648 ( 39)  0.3250 ( 40) -0.1407 ( 50)  0.1391 ( 51)
          -0.1326 ( 53)  0.1179 ( 65) -0.1498 ( 66) -0.1498 ( 81) -0.1121 ( 82)
           0.1281 ( 93)  0.1230 (102)  0.1055 (103) -0.1409 (124)
 CRD 16=   0.1663 (  3) -0.2132 (  6) -0.1299 (  9) -0.1033 ( 10) -0.1596 ( 13)
           0.1029 ( 14)  0.1036 ( 16)  0.1505 ( 17) -0.1550 ( 18) -0.1466 ( 24)
           0.1018 ( 25)  0.1161 ( 30)  0.1625 ( 34) -0.2879 ( 36)  0.1890 ( 37)
          -0.2879 ( 38) -0.2004 ( 39)  0.1625 ( 40)  0.1606 ( 50) -0.1149 ( 76)
           0.1861 ( 81)  0.1992 ( 82) -0.1030 ( 96)  0.1852 ( 97)  0.1212 ( 98)
          -0.1017 ( 99) -0.1106 (100) -0.1080 (108) -0.1195 (123)
 CRD 17=  -0.2112 (  3) -0.1101 (  9) -0.3600 ( 10) -0.1963 ( 13)  0.1997 ( 14)
           0.1250 ( 16) -0.1175 ( 17)  0.2142 ( 22) -0.1714 ( 25)  0.1262 ( 35)
           0.1430 ( 48)  0.1361 ( 54) -0.1630 ( 61)  0.1352 ( 68)  0.1693 ( 70)
          -0.2350 ( 73) -0.1217 ( 75) -0.1368 ( 77) -0.1020 ( 78) -0.1419 ( 87)
          -0.1326 ( 88)  0.2247 ( 97) -0.2160 (117) -0.1028 (118) -0.2132 (122)
 CRD 18=   0.2311 ( 10) -0.1792 ( 13)  0.4027 ( 14)  0.1700 ( 15)  0.1032 ( 22)
           0.1933 ( 45) -0.1140 ( 46) -0.1842 ( 48)  0.1197 ( 49) -0.1373 ( 50)
           0.1593 ( 51) -0.1326 ( 62) -0.1516 ( 72) -0.1272 ( 74)  0.1505 ( 77)
           0.1700 ( 78)  0.1692 ( 79)  0.1097 ( 84) -0.1780 ( 87) -0.1752 ( 88)
           0.1139 ( 93) -0.1345 ( 94) -0.1463 ( 95)  0.1082 ( 96)  0.1003 ( 97)
           0.1011 (115)  0.1027 (119)  0.1024 (120)  0.1129 (121)  0.1173 (124)
 CRD 19=  -0.1188 (  3)  0.1575 ( 10) -0.4934 ( 15)  0.2955 ( 16) -0.1312 ( 25)
           0.1051 ( 37) -0.1851 ( 39)  0.1383 ( 45) -0.2109 ( 46) -0.1234 ( 51)
          -0.1314 ( 52)  0.1376 ( 53) -0.1631 ( 54)  0.1538 ( 55)  0.1990 ( 68)
           0.2308 ( 70) -0.1028 ( 80) -0.1026 ( 88) -0.2291 ( 93) -0.1865 ( 96)
 CRD 20=   0.1140 (  3)  0.1815 ( 10)  0.1114 ( 14) -0.1225 ( 17)  0.1158 ( 53)
          -0.2166 ( 66) -0.2549 ( 67) -0.2578 ( 69) -0.2562 ( 71) -0.1568 ( 76)
          -0.2282 ( 84) -0.2385 ( 89) -0.2355 ( 90) -0.2369 ( 91) -0.1684 ( 92)
          -0.1054 (102) -0.2442 (119) -0.2412 (120) -0.2425 (121) -0.1378 (123)
          -0.1976 (124)
 CRD 21=  -0.1809 (  3)  0.1864 ( 10) -0.2250 ( 17)  0.3199 ( 18) -0.1700 ( 20)
           0.1079 ( 49) -0.1032 ( 64) -0.2143 ( 66)  0.1565 ( 67)  0.1460 ( 69)
           0.1226 ( 71) -0.2639 ( 76) -0.2484 ( 84)  0.1498 ( 89)  0.1603 ( 90)
           0.1263 ( 91) -0.2981 ( 92)  0.1601 (119)  0.1706 (120)  0.1367 (121)
          -0.2963 (123) -0.2466 (124)
 CRD 22=  -0.1509 (  8)  0.1099 ( 17) -0.4720 ( 19) -0.4706 ( 20) -0.4854 ( 21)
           0.1978 ( 29)  0.1783 ( 30)  0.1841 ( 31) -0.1803 ( 63) -0.1989 ( 64)
          -0.2161 ( 65)
 CRD 23=   0.2950 (  3) -0.2743 (  6) -0.1615 ( 17) -0.1555 ( 18)  0.1270 ( 19)
          -0.1006 ( 37)  0.1006 ( 45) -0.1151 ( 46)  0.1357 ( 50) -0.1202 ( 51)
           0.2423 ( 52) -0.2060 ( 53)  0.1141 ( 55)  0.1023 ( 77)  0.1081 ( 78)
           0.1239 ( 81)  0.1262 ( 82)  0.2140 ( 83)  0.2421 ( 86)  0.1247 (101)
           0.1972 (102)  0.2138 (103)  0.1224 (104)  0.1332 (105)  0.1309 (106)
           0.2419 (107)  0.2253 (108)  0.1104 (110)  0.1162 (115)
 CRD 24=   0.5807 ( 17)  0.5743 ( 18) -0.1364 ( 34) -0.1409 ( 36) -0.1409 ( 38)
          -0.1364 ( 40)  0.3196 ( 62)
 CRD 25=  -0.1447 (  6)  0.4311 ( 10) -0.2651 ( 13)  0.1876 ( 14)  0.1995 ( 16)
          -0.1049 ( 17)  0.1973 ( 54) -0.1930 ( 55)  0.1819 ( 61) -0.2073 ( 77)
          -0.1942 ( 78) -0.1123 ( 97) -0.3103 (110) -0.1414 (111) -0.2973 (115)
          -0.1284 (116)
 CRD 26=  -0.4155 ( 19) -0.1857 ( 20)  0.6262 ( 21)  0.2301 ( 63)  0.1027 ( 64)
          -0.3282 ( 65) -0.1975 ( 69)  0.1609 ( 71) -0.1876 ( 89)  0.1708 ( 91)
          -0.2027 (119)  0.1556 (121)
 CRD 27=   0.4461 ( 19) -0.5897 ( 20)  0.1209 ( 21) -0.2582 ( 63)  0.3272 ( 64)
          -0.1936 ( 67)  0.1604 ( 71) -0.2007 ( 90)  0.1534 ( 91) -0.2083 (120)
           0.1458 (121)
 CRD 28=   0.1346 (  6) -0.5844 ( 13) -0.5711 ( 14)  0.2568 ( 15)  0.1809 ( 16)
          -0.2146 ( 57)  0.1052 ( 78)  0.1383 (109) -0.1165 (113)
 CRD 29=   0.4601 (  3)  0.4599 (  6) -0.1616 ( 13) -0.3926 ( 15) -0.3926 ( 16)
           0.1773 ( 56) -0.1529 ( 58) -0.1402 (104)  0.1447 (105)
 CRD 30=  -0.3677 (  3) -0.4019 (  6) -0.2406 ( 13) -0.1457 ( 14) -0.3249 ( 15)
          -0.4853 ( 16) -0.1615 ( 56) -0.1749 ( 58)  0.1311 (101) -0.1371 (106)
           0.1469 (112)
 CRD 31=   0.3202 (  3) -0.3229 (  6)  0.1613 ( 13) -0.2627 ( 14)  0.1417 ( 22)
          -0.1510 ( 25) -0.1377 ( 50)  0.1493 ( 51) -0.1296 ( 68) -0.1215 ( 70)
          -0.1072 ( 81) -0.1327 ( 87) -0.1437 ( 88) -0.1016 ( 96) -0.1718 (101)
          -0.1999 (104) -0.1833 (105) -0.2114 (106) -0.2265 (109) -0.2375 (112)
          -0.2294 (113) -0.2184 (114)
 CRD 32=   0.1608 (  3) -0.1573 (  6)  0.1765 ( 10)  0.1280 ( 11)  0.1083 ( 13)
          -0.1052 ( 14)  0.2612 ( 15) -0.1814 ( 16)  0.1256 ( 35) -0.2043 ( 49)
           0.1565 ( 61)  0.1343 ( 68)  0.1158 ( 70) -0.2322 ( 75)  0.1019 ( 88)
          -0.1213 ( 93)  0.1536 ( 98) -0.1632 (101) -0.1613 (104) -0.1397 (105)
          -0.1378 (106)  0.1245 (109)  0.1731 (111)  0.1384 (112)  0.1199 (113)
           0.1060 (114)  0.1752 (116) -0.2538 (118) -0.2587 (125)
 CRD 33=   0.1103 (  3) -0.1376 ( 10) -0.2329 ( 13)  0.2535 ( 14)  0.2480 ( 15)
          -0.1939 ( 16) -0.1020 ( 46)  0.1251 ( 49) -0.1135 ( 61)  0.1423 ( 70)
           0.1579 ( 75) -0.1142 ( 81) -0.1300 ( 82)  0.1224 ( 87) -0.1540 ( 93)
          -0.1368 ( 96) -0.1369 ( 97) -0.1801 ( 98) -0.1868 (101) -0.1710 (104)
          -0.1696 (105) -0.1538 (106)  0.1595 (109) -0.1174 (110) -0.1606 (111)
           0.1202 (112)  0.1654 (113)  0.2047 (114) -0.1340 (115) -0.1772 (116)
           0.1824 (118)  0.1834 (125)
 CRD 34=   0.1312 (  3) -0.1597 (  6) -0.1563 (  8)  0.1449 (  9) -0.2067 ( 10)
           0.1668 ( 11)  0.1314 ( 14) -0.1316 ( 15)  0.1332 ( 16) -0.2115 ( 17)
           0.2042 ( 18) -0.2394 ( 19) -0.1100 ( 20) -0.1562 ( 21) -0.1342 ( 29)
          -0.1500 ( 30) -0.1071 ( 31)  0.1143 ( 33) -0.1301 ( 49) -0.1272 ( 52)
          -0.1038 ( 57)  0.1866 ( 64)  0.1489 ( 65) -0.1659 ( 66)  0.1358 ( 73)
           0.1451 ( 75) -0.1282 ( 86)  0.1358 ( 92) -0.1727 ( 98) -0.1119 (107)
          -0.1956 (111)  0.1042 (112) -0.1537 (116)  0.1189 (123)
 CRD 35=   0.2967 (  5) -0.1724 (  9) -0.2874 ( 10) -0.2408 ( 17)  0.2116 ( 18)
          -0.1652 ( 20)  0.1423 ( 21) -0.1345 ( 27)  0.1004 ( 39) -0.1333 ( 56)
           0.1676 ( 61)  0.1574 ( 65)  0.2308 ( 66) -0.1114 ( 71)  0.2186 ( 84)
          -0.1725 ( 91)  0.1071 ( 98) -0.1310 (106)  0.1407 (111)  0.1716 (122)
          -0.2072 (123)
 CRD 36=  -0.1937 (  3)  0.1002 (  6)  0.1836 ( 10)  0.1740 ( 13) -0.1222 ( 14)
           0.1563 ( 15) -0.1914 ( 17) -0.1831 ( 18) -0.1534 ( 19)  0.1286 ( 20)
           0.1068 ( 21) -0.1317 ( 34) -0.1416 ( 36) -0.1416 ( 38) -0.1317 ( 40)
          -0.1421 ( 53)  0.2127 ( 62) -0.1635 ( 63)  0.1397 ( 69) -0.1365 ( 74)
           0.1375 ( 78)  0.1336 ( 79)  0.2289 ( 83) -0.1003 ( 87) -0.2172 ( 90)
          -0.1402 ( 91)  0.1648 (102) -0.1477 (111)  0.1125 (118) -0.1232 (120)
           0.2068 (125)
 CRD 37=  -0.4336 (  8) -0.1738 ( 10)  0.1141 ( 14) -0.1088 ( 15)  0.1538 ( 16)
           0.2323 ( 19)  0.2434 ( 20)  0.1981 ( 21)  0.2246 ( 29)  0.2178 ( 30)
           0.2213 ( 31)  0.1830 ( 33)  0.1125 ( 46) -0.1284 ( 49) -0.2333 ( 63)
          -0.2175 ( 64) -0.2549 ( 65) -0.1141 ( 70)  0.1415 (112)
 CRD 38=   0.1735 (  4) -0.1857 (  5)  0.3688 (  9) -0.1175 ( 10) -0.1917 ( 11)
          -0.1816 ( 13)  0.1938 ( 16) -0.2466 ( 18) -0.1132 ( 19) -0.1429 ( 33)
          -0.1038 ( 35)  0.1132 ( 49)  0.1131 ( 51) -0.1401 ( 54)  0.1099 ( 57)
           0.1474 ( 62)  0.1550 ( 77) -0.1553 ( 81)  0.1373 ( 98) -0.2026 (106)
          -0.1038 (107)  0.2897 (111) -0.1384 (115)
 CRD 39=   0.1169 (  3) -0.1676 (  6)  0.2029 (  8) -0.1184 (  9)  0.1045 ( 14)
          -0.1396 ( 15)  0.1178 ( 16)  0.3791 ( 17) -0.2815 ( 18)  0.1278 ( 25)
          -0.1734 ( 34)  0.1051 ( 39) -0.1734 ( 40) -0.1553 ( 50) -0.1438 ( 57)
          -0.1738 ( 76) -0.1895 ( 82)  0.1308 ( 88) -0.2433 ( 92)  0.1663 (112)
           0.1011 (115) -0.2056 (123)
 CRD 40=  -0.1547 (  6) -0.1612 (  8)  0.1789 (  9)  0.1086 ( 10) -0.2082 ( 11)
           0.1539 ( 12) -0.1351 ( 17)  0.1657 ( 18)  0.1878 ( 22)  0.1502 ( 25)
          -0.2560 ( 33)  0.1062 ( 39)  0.1031 ( 44) -0.1006 ( 46)  0.1952 ( 49)
          -0.2079 ( 50) -0.1195 ( 51) -0.1291 ( 52) -0.1258 ( 77) -0.1217 ( 82)
           0.1523 ( 84) -0.1942 ( 86) -0.1216 ( 87)  0.1236 ( 88)  0.1382 ( 92)
           0.1659 (104)  0.1156 (106) -0.1213 (107) -0.1548 (108) -0.1105 (109)
          -0.1316 (110)  0.1347 (112)  0.2172 (113)
 CRD 41=   0.1120 (  3)  0.1624 (  4) -0.1100 (  6) -0.1210 (  8)  0.2107 ( 11)
          -0.1491 ( 12) -0.2152 ( 13)  0.1670 ( 14) -0.1725 ( 15)  0.1032 ( 20)
          -0.1055 ( 25) -0.2697 ( 45)  0.1883 ( 55)  0.2131 ( 58) -0.1248 ( 63)
          -0.1855 ( 68)  0.1069 ( 69)  0.1619 ( 78) -0.1300 ( 82)  0.2134 ( 87)
          -0.2889 (112)  0.1954 (114)  0.1971 (115)  0.2321 (116)
 CRD 42=   0.1838 (  4) -0.2231 (  5)  0.1033 (  6) -0.1911 (  9)  0.2877 ( 10)
          -0.2439 ( 12)  0.1388 ( 16)  0.1347 ( 17)  0.2033 ( 37)  0.1535 ( 39)
           0.1246 ( 41)  0.1584 ( 51) -0.1125 ( 52) -0.1513 ( 56) -0.1097 ( 58)
          -0.1275 ( 61) -0.1241 ( 71) -0.1021 ( 81)  0.1025 ( 82)  0.1264 ( 84)
           0.1844 ( 93) -0.1238 ( 96)  0.1135 ( 97)  0.2353 (101) -0.2775 (106)
           0.1027 (114)
 CRD 43=  -0.1236 (  8) -0.1642 ( 10)  0.1656 ( 11)  0.1105 ( 15) -0.1343 ( 16)
           0.1483 ( 17) -0.2686 ( 18) -0.1598 ( 20)  0.2263 ( 21) -0.1446 ( 23)
          -0.1446 ( 26)  0.1845 ( 36)  0.1845 ( 38) -0.1261 ( 46) -0.1562 ( 64)
           0.1301 ( 65) -0.1956 ( 66)  0.1007 ( 70) -0.1818 ( 71)  0.1141 ( 76)
           0.1110 ( 81) -0.1994 ( 84) -0.1019 ( 87)  0.1173 ( 89) -0.1222 ( 91)
           0.1103 ( 92)  0.1093 (104) -0.1059 (109) -0.1173 (110) -0.1292 (118)
           0.2017 (119)  0.1615 (120) -0.2246 (124)
 CRD 44=   0.1116 (  3) -0.1487 (  4)  0.1183 (  5) -0.1656 (  9)  0.1958 ( 10)
          -0.2090 ( 11) -0.1341 ( 15)  0.1328 ( 16) -0.1484 ( 17) -0.1604 ( 20)
          -0.1070 ( 37)  0.1005 ( 41)  0.1227 ( 42)  0.1227 ( 43)  0.1033 ( 46)
           0.1089 ( 53)  0.1682 ( 62) -0.1039 ( 64) -0.1319 ( 66)  0.1658 ( 67)
          -0.1023 ( 70) -0.1058 ( 73)  0.2090 ( 76) -0.1047 ( 81) -0.1048 ( 82)
          -0.1007 ( 83) -0.1078 ( 84) -0.1510 ( 91)  0.2331 ( 92) -0.2186 (102)
          -0.1967 (103)  0.1354 (109)  0.1117 (112)  0.1613 (120)  0.1773 (123)
          -0.1636 (124)
 CRD 45=   0.1549 (  5) -0.1298 (  8)  0.1334 ( 10) -0.1841 ( 11)  0.1025 ( 12)
          -0.2853 ( 19)  0.2378 ( 21)  0.1654 ( 29)  0.1076 ( 41)  0.1018 ( 44)
           0.1094 ( 53) -0.1236 ( 55) -0.2395 ( 63)  0.1404 ( 65) -0.1788 ( 67)
           0.1943 ( 69) -0.1001 ( 76) -0.1156 ( 78) -0.1081 ( 83)  0.1092 ( 84)
           0.2602 ( 89) -0.1128 ( 90) -0.1165 ( 94)  0.1032 ( 99)  0.1123 (105)
           0.1136 (107)  0.1070 (109)  0.1089 (110) -0.1181 (116)  0.2082 (119)
          -0.1648 (120) -0.1340 (122)
 CRD 46=  -0.1831 (  4) -0.1750 (  5)  0.2171 (  6)  0.1690 (  8) -0.1361 ( 12)
           0.1337 ( 14)  0.1212 ( 16) -0.2012 ( 19)  0.1042 ( 20)  0.1283 ( 25)
          -0.1050 ( 41)  0.1164 ( 52)  0.1367 ( 55) -0.1413 ( 56) -0.1413 ( 57)
          -0.1345 ( 59) -0.1345 ( 60) -0.1064 ( 63)  0.1138 ( 64) -0.1843 ( 67)
          -0.1184 ( 77)  0.1268 ( 78)  0.1193 ( 86)  0.1094 ( 88)  0.1735 ( 89)
           0.1058 ( 95) -0.1144 ( 96) -0.1183 (100) -0.1859 (105) -0.1475 (106)
           0.2110 (107) -0.1252 (110)  0.1200 (115)  0.1915 (116)  0.1174 (119)
          -0.1131 (120) -0.1080 (125)
 CRD 47=   0.2120 (  3) -0.1419 (  4)  0.1639 ( 13) -0.1562 ( 14)  0.2219 ( 20)
          -0.1680 ( 21)  0.1164 ( 30) -0.1030 ( 31)  0.1101 ( 44) -0.1346 ( 46)
           0.1203 ( 53)  0.1119 ( 54) -0.1812 ( 56)  0.1461 ( 64) -0.1402 ( 65)
           0.1323 ( 70)  0.2309 ( 71) -0.1605 ( 83) -0.1365 ( 90)  0.1432 ( 91)
           0.1502 ( 93)  0.1614 (101) -0.1481 (102) -0.1579 (103)  0.1004 (104)
          -0.1341 (110)  0.1063 (114)  0.2424 (121) -0.1150 (123) -0.1545 (124)
 CRD 48=   0.1600 (  5)  0.1989 (  9) -0.3715 ( 12)  0.1592 ( 13)  0.1296 ( 16)
          -0.1020 ( 22)  0.1162 ( 47)  0.1221 ( 49)  0.1085 ( 50)  0.1095 ( 56)
          -0.1869 ( 57) -0.1616 ( 58) -0.1172 ( 76) -0.1864 ( 77)  0.1084 ( 78)
          -0.1423 ( 81)  0.1435 ( 82) -0.1086 ( 93)  0.1105 ( 96) -0.2502 (104)
           0.2546 (105) -0.2168 (110)  0.2064 (116)  0.1136 (124)
 CRD 49=   0.2652 (  4) -0.2434 ( 11)  0.1890 ( 13) -0.2061 ( 16) -0.2039 ( 24)
          -0.1034 ( 25)  0.1066 ( 45)  0.1905 ( 47)  0.1194 ( 50) -0.1013 ( 53)
          -0.1122 ( 55) -0.2135 ( 57)  0.2173 ( 58)  0.2226 ( 68) -0.1110 ( 70)
          -0.1119 ( 77)  0.1238 ( 81)  0.1166 ( 87) -0.2120 ( 88) -0.1305 ( 96)
           0.1002 ( 98)  0.1535 (104) -0.1456 (105)  0.3322 (109) -0.1290 (110)
          -0.3301 (113)  0.1089 (116)
 CRD 50=  -0.1749 (  4)  0.1616 (  6) -0.1669 (  8) -0.1451 ( 11) -0.1157 ( 13)
           0.1751 ( 14)  0.1180 ( 15)  0.1285 ( 22) -0.1655 ( 28)  0.1276 ( 32)
          -0.1056 ( 33)  0.1392 ( 41)  0.1471 ( 46) -0.1622 ( 51) -0.1550 ( 54)
          -0.1098 ( 56) -0.1017 ( 66)  0.1475 ( 72)  0.1099 ( 74) -0.1836 ( 76)
          -0.1562 ( 79)  0.1275 ( 81)  0.1033 ( 88) -0.1097 ( 89) -0.1974 ( 96)
          -0.1046 ( 98)  0.1971 (108) -0.1415 (109) -0.1246 (113) -0.2619 (114)
 CRD 51=  -0.2158 (  3)  0.2342 (  5) -0.1360 (  9) -0.1062 ( 15)  0.1049 ( 20)
          -0.1199 ( 21) -0.1185 ( 22) -0.1300 ( 23)  0.1097 ( 25) -0.1300 ( 26)
          -0.1145 ( 27) -0.1294 ( 32) -0.1069 ( 39)  0.1802 ( 44)  0.1463 ( 56)
          -0.1021 ( 65) -0.1610 ( 67) -0.1358 ( 68) -0.1842 ( 69) -0.1028 ( 70)
          -0.1121 ( 72)  0.1449 ( 80) -0.1410 ( 85) -0.1129 ( 89)  0.1069 ( 92)
           0.1036 ( 96) -0.1021 (100) -0.2197 (101)  0.1203 (102)  0.2343 (103)
          -0.1944 (104)  0.2021 (121) -0.1085 (123) -0.2046 (124)
 CRD 52=  -0.1684 (  6)  0.1024 (  8) -0.1785 (  9)  0.1160 ( 14)  0.1895 ( 15)
          -0.1204 ( 25) -0.1132 ( 27) -0.1032 ( 31)  0.1289 ( 39)  0.1222 ( 50)
          -0.1580 ( 52) -0.1059 ( 54) -0.1558 ( 67)  0.1069 ( 68)  0.1661 ( 72)
           0.1852 ( 76) -0.1011 ( 79) -0.2003 ( 80) -0.1078 ( 81)  0.1363 ( 85)
          -0.1122 ( 86)  0.2041 ( 99)  0.1961 (101)  0.1219 (103)  0.2321 (105)
          -0.2387 (108) -0.1226 (109) -0.1141 (113) -0.2191 (114)  0.1517 (121)
          -0.1328 (124)
 CRD 53=  -0.1164 (  4) -0.2288 (  5)  0.1344 ( 23)  0.1344 ( 26) -0.3700 ( 27)
           0.1117 ( 28) -0.2179 ( 30)  0.1034 ( 31)  0.1019 ( 33) -0.1084 ( 41)
          -0.2535 ( 42) -0.2535 ( 43)  0.2119 ( 44)  0.1132 ( 53)  0.2011 ( 59)
           0.2011 ( 60)  0.1507 ( 76)  0.1056 ( 92)  0.1919 ( 94)  0.1806 (100)
           0.1351 (108) -0.1133 (121)  0.1276 (122) -0.1811 (124)  0.1506 (125)
 CRD 54=  -0.1114 (  5) -0.2542 (  9) -0.1754 ( 11) -0.2263 ( 23) -0.2263 ( 26)
           0.1933 ( 28)  0.1690 ( 29) -0.2048 ( 31) -0.1527 ( 32)  0.1172 ( 34)
           0.1172 ( 40) -0.2882 ( 44)  0.1177 ( 49)  0.1014 ( 52)  0.2641 ( 59)
           0.2641 ( 60) -0.1316 ( 84) -0.1921 ( 95) -0.1670 ( 99) -0.1495 (103)
          -0.1427 (107) -0.1819 (117) -0.1719 (118)  0.1569 (123)  0.1213 (124)

 THE DETERMINANT OF THE G MATRIX IS 10**(   -15)


                     --------------------
                     INTERNAL COORDINATES
                     --------------------

                 - - ATOMS - -         COORDINATE      COORDINATE
 NO.   TYPE    I  J  K  L  M  N        (BOHR,RAD)       (ANG,DEG)
 ----------------------------------------------------------------
   1 STRETCH   2 12                     3.5001152       1.8521813
   2 STRETCH   3 13                     3.0676982       1.6233561
   3 STRETCH   1  7                     2.0999935       1.1112688
   4 STRETCH   1  5                     2.8942906       1.5315927
   5 STRETCH   1  2                     2.9322982       1.5517055
   6 STRETCH   1  6                     2.0989562       1.1107199
   7 STRETCH   2 12                     3.5001152       1.8521813
   8 STRETCH   2 17                     2.9507659       1.5614782
   9 STRETCH   2  3                     2.7470460       1.4536742
  10 STRETCH   3 16                     2.0643926       1.0924296
  11 STRETCH   3  4                     2.8380693       1.5018417
  12 STRETCH   4  5                     2.8676739       1.5175078
  13 STRETCH   4  9                     2.0978529       1.1101360
  14 STRETCH   4  8                     2.1030576       1.1128902
  15 STRETCH   5 11                     2.1080254       1.1155191
  16 STRETCH   5 10                     2.0983314       1.1103893
  17 STRETCH  12 15                     2.2440918       1.1875223
  18 STRETCH  12 14                     2.2436111       1.1872679
  19 STRETCH  17 20                     2.0972427       1.1098131
  20 STRETCH  17 19                     2.0983768       1.1104133
  21 STRETCH  17 18                     2.0968416       1.1096009
  22 BEND      1  5 10                  1.9983246     114.4955665
  23 BEND      1  2 12                  1.9175360     109.8667181
  24 BEND      1  5  4                  1.8042945     103.3784602
  25 BEND      1  5 11                  1.8818179     107.8202258
  26 BEND      1  2 12                  1.9175360     109.8667181
  27 BEND      1  2 17                  2.1061899     120.6757922
  28 BEND      1  2  3                  1.8393717     105.3882371
  29 BEND      2 17 20                  1.9738294     113.0920958
  30 BEND      2 17 18                  1.9149966     109.7212251
  31 BEND      2 17 19                  1.9358356     110.9152078
  32 BEND      2  1  5                  1.7955539     102.8776596
  33 BEND      2  3 16                  2.1570754     123.5913156
  34 BEND      2 12 15                  2.0678195     118.4773303
  35 BEND      2  3 13                  1.4317642      82.0340476
  36 BEND      2 12 14                  2.0621019     118.1497381
  37 BEND      2  1  7                  1.9281202     110.4731480
  38 BEND      2 12 14                  2.0621019     118.1497381
  39 BEND      2  1  6                  1.9936174     114.2258629
  40 BEND      2 12 15                  2.0678195     118.4773303
  41 BEND      2  3  4                  1.9163984     109.8015379
  42 BEND      3  2 12                  1.6496280      94.5167233
  43 BEND      3  2 12                  1.6496280      94.5167233
  44 BEND      3  2 17                  2.0438040     117.1013452
  45 BEND      3  4  8                  1.9121533     109.5583139
  46 BEND      3  4  9                  1.9922858     114.1495675
  47 BEND      3  4  5                  1.7475384     100.1265730
  48 BEND      4  3 13                  1.8117611     103.8062641
  49 BEND      4  3 16                  2.1681825     124.2277047
  50 BEND      4  5 10                  2.0134986     115.3649696
  51 BEND      4  5 11                  1.8698027     107.1318006
  52 BEND      5  1  7                  1.9299277     110.5767135
  53 BEND      5  1  6                  1.9192421     109.9644707
  54 BEND      5  4  8                  1.8986810     108.7864087
  55 BEND      5  4  9                  1.9885806     113.9372742
  56 BEND      6  1  7                  1.8959427     108.6295145
  57 BEND      8  4  9                  1.9169195     109.8313994
  58 BEND     10  5 11                  1.8882364     108.1879754
  59 BEND     12  2 17                  1.8512120     106.0666338
  60 BEND     12  2 17                  1.8512120     106.0666338
  61 BEND     13  3 16                  1.7203103      98.5665202
  62 BEND     14 12 15                  1.9457704     111.4844294
  63 BEND     18 17 19                  1.8794543     107.6847973
  64 BEND     18 17 20                  1.8707270     107.1847607
  65 BEND     19 17 20                  1.8855129     108.0319339
  66 TORSION   1  2 12 15              -2.4638100    -141.1659145
  67 TORSION   1  2 17 18              -0.1228264      -7.0374366
  68 TORSION   1  5  4  8               1.2630495      72.3674035
  69 TORSION   1  2 17 19              -2.1970919    -125.8840944
  70 TORSION   1  5  4  9              -2.8752508    -164.7397330
  71 TORSION   1  2 17 20               1.9647047     112.5692889
  72 TORSION   1  5  4  3              -0.7411424     -42.4643341
  73 TORSION   1  2  3 13              -1.9733782    -113.0662405
  74 TORSION   1  2  3  4              -0.1953782     -11.1943485
  75 TORSION   1  2  3 16               2.6512785     151.9070659
  76 TORSION   1  2 12 14              -0.0253807      -1.4542048
  77 TORSION   2  3  4  8              -1.4067755     -80.6022969
  78 TORSION   2  3  4  9               2.7186390     155.7665403
  79 TORSION   2  3  4  5               0.5871556      33.6415402
  80 TORSION   2  1  5  4               0.6385762      36.5877234
  81 TORSION   2  1  5 11              -1.3377443     -76.6471019
  82 TORSION   2  1  5 10               2.8432222     162.9046318
  83 TORSION   3  2  1  6              -2.3554643    -134.9581618
  84 TORSION   3  2 12 15               1.9317308     110.6800223
  85 TORSION   3  2  1  5              -0.2760851     -15.8185134
  86 TORSION   3  2  1  7               1.7842200     102.2282737
  87 TORSION   3  4  5 10              -2.9360943    -168.2258095
  88 TORSION   3  4  5 11               1.2438847      71.2693434
  89 TORSION   3  2 17 19               0.0814887       4.6689597
  90 TORSION   3  2 17 18               2.1557542     123.5156175
  91 TORSION   3  2 17 20              -2.0398999    -116.8776570
  92 TORSION   3  2 12 14              -1.9130252    -109.6082679
  93 TORSION   4  5  1  6               2.7690170     158.6529898
  94 TORSION   4  3  2 17              -2.5922293    -148.5238005
  95 TORSION   4  3  2 12               1.7601481     100.8490584
  96 TORSION   4  5  1  7              -1.4204567     -81.3861742
  97 TORSION   5  4  3 13               2.0947129     120.0182077
  98 TORSION   5  4  3 16              -2.2572235    -129.3293798
  99 TORSION   5  1  2 17               2.0879664     119.6316610
 100 TORSION   5  1  2 12              -2.0342724    -116.5552241
 101 TORSION   6  1  5 10              -1.3095223     -75.0301018
 102 TORSION   6  1  2 12               2.1695338     124.3051275
 103 TORSION   6  1  2 17               0.0085872       0.4920126
 104 TORSION   6  1  5 11               0.7926965      45.4181645
 105 TORSION   7  1  5 10               0.7841892      44.9307342
 106 TORSION   7  1  5 11               2.8864081     165.3790005
 107 TORSION   7  1  2 17              -2.1349138    -122.3215519
 108 TORSION   7  1  2 12               0.0260327       1.4915630
 109 TORSION   8  4  5 10              -0.9319024     -53.3940719
 110 TORSION   8  4  3 13               0.1007818       5.7743706
 111 TORSION   8  4  3 16               2.0320307     116.4267831
 112 TORSION   8  4  5 11              -3.0351087    -173.8989191
 113 TORSION   9  4  5 11              -0.8902236     -51.0060556
 114 TORSION   9  4  5 10               1.2129827      69.4987915
 115 TORSION   9  4  3 13              -2.0569891    -117.8567923
 116 TORSION   9  4  3 16              -0.1257401      -7.2043797
 117 TORSION  12  2  3 13              -0.0178518      -1.0228336
 118 TORSION  12  2  3 16              -1.6763805     -96.0495272
 119 TORSION  12  2 17 19               1.8940810     108.5228489
 120 TORSION  12  2 17 18              -2.3148388    -132.6304933
 121 TORSION  12  2 17 20              -0.2273076     -13.0237679
 122 TORSION  13  3  2 17               1.9129560     109.6043076
 123 TORSION  14 12  2 17               2.2777140     130.5033996
 124 TORSION  15 12  2 17              -0.1607153      -9.2083102
 125 TORSION  16  3  2 17               0.2544274      14.5776139

     ------------------------------------------
     THE POINT GROUP IS C1 , NAXIS= 0, ORDER= 1
     ------------------------------------------

     DIMENSIONS OF THE SYMMETRY SUBSPACES ARE
 A   =   48

 ..... DONE SETTING UP THE RUN .....
 STEP CPU TIME =     0.07 TOTAL CPU TIME =          0.1 (      0.0 MIN)
 TOTAL WALL CLOCK TIME=          0.1 SECONDS, CPU UTILIZATION IS    58.33%


          -----------------------------
          STATIONARY POINT LOCATION RUN
          -----------------------------


           ** GEOMETRY CONSTRAINTS ARE BEING APPLIED. **

          TRANSFORMING DISPLACEMENT FROM INTERNALS TO CARTESIANS
          THE ROOT MEAN SQUARE ERROR IN ITERATION   1 IS   0.00098538
          THE ROOT MEAN SQUARE ERROR IN ITERATION   2 IS   0.00000137
          THE ROOT MEAN SQUARE ERROR IN ITERATION   3 IS   0.00000000
 WARNING! THE RADIUS IN CARTESIANS IS    0.79834
 OBTAINING INITIAL HESSIAN, HESS=CALC    

     ---------------------------------
     HESSIAN MATRIX CONTROL PARAMETERS
     ---------------------------------
     METHOD=ANALYTIC   NVIB  =       2   VIBSIZ= 0.01000
     RDHESS=       F   PURIFY=       F   PRTIFC=       F
     VIBANL=       F   DECOMP=       F   PROJCT=       F
     SCLFAC= 1.00000   PRTSCN=       F   NPRT  =       0
     PULCOR=       F   NPUN  =       0   REDOVB=       T
     HSSTYP=GENERAL 
 Old integral subroutine is used

     ------------------------------
     CPHF RESPONSE SOLUTION OPTIONS
     ------------------------------
     POLAR  =       F     NWORD  =       0
     CPHF   =AO      

          ********************
          1 ELECTRON INTEGRALS
          ********************
 ...... END OF ONE-ELECTRON INTEGRALS ......
 STEP CPU TIME =     0.05 TOTAL CPU TIME =          0.1 (      0.0 MIN)
 TOTAL WALL CLOCK TIME=          0.2 SECONDS, CPU UTILIZATION IS    75.00%

          -------------
          GUESS OPTIONS
          -------------
          GUESS =HUCKEL            NORB  =       0          NORDER=       0
          MIX   =       F          PRTMO =       F          PUNMO =       F
          TOLZ  = 1.0E-08          TOLE  = 1.0E-05
          SYMDEN=       F          PURIFY=       F

 INITIAL GUESS ORBITALS GENERATED BY HUCKEL   ROUTINE.
 HUCKEL GUESS REQUIRES     39252 WORDS.

 SYMMETRIES FOR INITIAL GUESS ORBITALS FOLLOW.   BOTH SET(S).
    27 ORBITALS ARE OCCUPIED (    7 CORE ORBITALS).
     8=A        9=A       10=A       11=A       12=A       13=A       14=A   
    15=A       16=A       17=A       18=A       19=A       20=A       21=A   
    22=A       23=A       24=A       25=A       26=A       27=A       28=A   
    29=A       30=A       31=A       32=A       33=A       34=A       35=A   
    36=A       37=A   
 ...... END OF INITIAL ORBITAL SELECTION ......
 STEP CPU TIME =     0.02 TOTAL CPU TIME =          0.1 (      0.0 MIN)
 TOTAL WALL CLOCK TIME=          0.2 SECONDS, CPU UTILIZATION IS    77.78%

                    ----------------------
                    AO INTEGRAL TECHNOLOGY
                    ----------------------
     S,P,L SHELL ROTATED AXIS INTEGRALS, REPROGRAMMED BY
        KAZUYA ISHIMURA (IMS) AND JOSE SIERRA (SYNSTAR).
     S,P,D,L SHELL ROTATED AXIS INTEGRALS PROGRAMMED BY
        KAZUYA ISHIMURA (INSTITUTE FOR MOLECULAR SCIENCE).
     S,P,D,F,G SHELL TO TOTAL QUARTET ANGULAR MOMENTUM SUM 5,
        ERIC PROGRAM BY GRAHAM FLETCHER (ELORET AND NASA ADVANCED
        SUPERCOMPUTING DIVISION, AMES RESEARCH CENTER).
     S,P,D,F,G,L SHELL GENERAL RYS QUADRATURE PROGRAMMED BY
        MICHEL DUPUIS (PACIFIC NORTHWEST NATIONAL LABORATORY).

          --------------------
          2 ELECTRON INTEGRALS
          --------------------

 THE -PK- OPTION IS OFF, THE INTEGRALS ARE NOT IN SUPERMATRIX FORM.
 STORING   15000 INTEGRALS/RECORD ON DISK, USING 12 BYTES/INTEGRAL.
 TWO ELECTRON INTEGRAL EVALUATION REQUIRES   89734 WORDS OF MEMORY.
 SCHWARZ INEQUALITY OVERHEAD:      1167 INTEGRALS, T=        0.00
 II,JST,KST,LST =  1  1  1  1 NREC =         1 INTLOC =    1
 II,JST,KST,LST =  2  1  1  1 NREC =         1 INTLOC =    2
 II,JST,KST,LST =  3  1  1  1 NREC =         1 INTLOC =   34
 II,JST,KST,LST =  4  1  1  1 NREC =         1 INTLOC =  139
 II,JST,KST,LST =  5  1  1  1 NREC =         1 INTLOC = 1356
 II,JST,KST,LST =  6  1  1  1 NREC =         1 INTLOC = 1943
 II,JST,KST,LST =  7  1  1  1 NREC =         1 INTLOC = 6829
 II,JST,KST,LST =  8  1  1  1 NREC =         1 INTLOC = 8537
 II,JST,KST,LST =  9  1  1  1 NREC =         2 INTLOC = 5989
 II,JST,KST,LST = 10  1  1  1 NREC =         2 INTLOC = 9879
 II,JST,KST,LST = 11  1  1  1 NREC =         4 INTLOC = 5340
 II,JST,KST,LST = 12  1  1  1 NREC =         4 INTLOC =13939
 II,JST,KST,LST = 13  1  1  1 NREC =         5 INTLOC = 8612
 II,JST,KST,LST = 14  1  1  1 NREC =         6 INTLOC = 4403
 II,JST,KST,LST = 15  1  1  1 NREC =         7 INTLOC = 1381
 II,JST,KST,LST = 16  1  1  1 NREC =         7 INTLOC =14661
 II,JST,KST,LST = 17  1  1  1 NREC =         8 INTLOC =14361
 II,JST,KST,LST = 18  1  1  1 NREC =         9 INTLOC =12362
 II,JST,KST,LST = 19  1  1  1 NREC =        15 INTLOC = 2580
 II,JST,KST,LST = 20  1  1  1 NREC =        16 INTLOC =12353
 II,JST,KST,LST = 21  1  1  1 NREC =        18 INTLOC = 9095
 II,JST,KST,LST = 22  1  1  1 NREC =        20 INTLOC = 7209
 II,JST,KST,LST = 23  1  1  1 NREC =        22 INTLOC = 8590
 II,JST,KST,LST = 24  1  1  1 NREC =        24 INTLOC = 5312
 II,JST,KST,LST = 25  1  1  1 NREC =        34 INTLOC =14303
 II,JST,KST,LST = 26  1  1  1 NREC =        38 INTLOC = 1213
 II,JST,KST,LST = 27  1  1  1 NREC =        41 INTLOC = 6396
 SCHWARZ INEQUALITY TEST SKIPPED        8131 INTEGRAL BLOCKS.
 TOTAL NUMBER OF NONZERO TWO-ELECTRON INTEGRALS =              658924
         44 INTEGRAL RECORDS WERE STORED ON DISK FILE  8.
  ...... END OF TWO-ELECTRON INTEGRALS .....
 STEP CPU TIME =     0.19 TOTAL CPU TIME =          0.3 (      0.0 MIN)
 TOTAL WALL CLOCK TIME=          0.4 SECONDS, CPU UTILIZATION IS    86.84%

          --------------------------
                 RHF SCF CALCULATION
          --------------------------

     NUCLEAR ENERGY =       302.4951212080
     MAXIT =   30     NPUNCH=    2
     EXTRAP=T  DAMP=F  SHIFT=F  RSTRCT=F  DIIS=F  DEM=F  SOSCF=T
     DENSITY MATRIX CONV=  1.00E-05
     SOSCF WILL OPTIMIZE     567 ORBITAL ROTATIONS, SOGTOL=   0.250
     MEMORY REQUIRED FOR RHF ITERS=     49068 WORDS.

 ITER EX DEM     TOTAL ENERGY        E CHANGE  DENSITY CHANGE     ORB. GRAD
   1  0  0     -255.8298789960  -255.8298789960   0.339991460   0.000000000
          ---------------START SECOND ORDER SCF---------------
   2  1  0     -256.2021021761    -0.3722231800   0.104306461   0.033456168
   3  2  0     -256.2218457571    -0.0197435810   0.048542267   0.013825950
   4  3  0     -256.2251128092    -0.0032670521   0.012040082   0.003387844
   5  4  0     -256.2253765143    -0.0002637051   0.003644728   0.001237479
   6  5  0     -256.2254202889    -0.0000437745   0.001772527   0.000360674
   7  6  0     -256.2254262407    -0.0000059518   0.000250975   0.000058386
   8  7  0     -256.2254264604    -0.0000002197   0.000086950   0.000025884
   9  8  0     -256.2254264899    -0.0000000295   0.000047983   0.000008283
  10  9  0     -256.2254264945    -0.0000000046   0.000021607   0.000003425
  11 10  0     -256.2254264953    -0.0000000008   0.000004200   0.000001380
  12 11  0     -256.2254264954    -0.0000000001   0.000001254   0.000000476

          -----------------
          DENSITY CONVERGED
          -----------------
     TIME TO FORM FOCK OPERATORS=       0.1 SECONDS (       0.0 SEC/ITER)
     TIME TO SOLVE SCF EQUATIONS=       0.0 SECONDS (       0.0 SEC/ITER)

 FINAL RHF ENERGY IS     -256.2254264954 AFTER  12 ITERATIONS

          ------------
          EIGENVECTORS
          ------------

                      1          2          3          4          5
                  -11.1627   -11.0970   -11.0710   -11.0540   -11.0479
                     A          A          A          A          A   
    1  C  1  S   -0.000290  -0.001171  -0.007313   0.991962   0.001616
    2  C  1  S    0.000145  -0.000017  -0.005968   0.036804   0.000215
    3  C  1  X   -0.000084  -0.000081  -0.003909   0.000481  -0.000107
    4  C  1  Y   -0.000068  -0.000317   0.000493   0.000110  -0.000006
    5  C  1  Z    0.000015  -0.000070   0.001538  -0.000182  -0.000088
    6  C  2  S    0.000866  -0.000388  -0.000846  -0.005161  -0.007418
    7  C  2  S   -0.005934   0.000180   0.000124  -0.005706  -0.005633
    8  C  2  X   -0.003195   0.000006  -0.000066  -0.001521   0.003296
    9  C  2  Y   -0.001757  -0.000057   0.000040   0.003233   0.000517
   10  C  2  Z    0.001886  -0.000084   0.000126  -0.002144   0.002397
   11  C  3  S    0.992514   0.001899   0.000799   0.000362   0.000218
   12  C  3  S    0.033810  -0.006131  -0.000091   0.000236   0.000199
   13  C  3  X   -0.000157  -0.003849   0.000045  -0.000064  -0.000070
   14  C  3  Y   -0.000893   0.001547   0.000378  -0.000009  -0.000061
   15  C  3  Z    0.000366  -0.001744  -0.000045  -0.000063  -0.000016
   16  C  4  S   -0.000971   0.991911   0.004883   0.001315   0.000088
   17  C  4  S   -0.005640   0.037525  -0.005694   0.000039  -0.000047
   18  C  4  X    0.003363  -0.001151   0.001017   0.000267   0.000055
   19  C  4  Y   -0.001565  -0.000118   0.004155  -0.000013  -0.000003
   20  C  4  Z    0.001732  -0.000026  -0.000736  -0.000188  -0.000025
   21  C  5  S   -0.000641  -0.003940   0.991927   0.008278  -0.000160
   22  C  5  S   -0.000035  -0.005989   0.037146  -0.005466   0.000001
   23  C  5  X    0.000388  -0.001327  -0.000359   0.003932  -0.000011
   24  C  5  Y   -0.000258  -0.004021   0.000546  -0.000292   0.000002
   25  C  5  Z    0.000277   0.000713  -0.000528  -0.001665  -0.000023
   26  H  6  S   -0.000051  -0.000144   0.000151  -0.006712  -0.000025
   27  H  7  S    0.000007   0.000074   0.000076  -0.006736  -0.000015
   28  H  8  S   -0.000079  -0.006748  -0.000024  -0.000020  -0.000005
   29  H  9  S    0.000066  -0.006670   0.000087  -0.000159  -0.000014
   30  H 10  S   -0.000197   0.000151  -0.006645   0.000062   0.000008
   31  H 11  S   -0.000188   0.000033  -0.006793  -0.000027  -0.000001
   32  B 12  S    0.000021  -0.000004  -0.000000   0.000008   0.000017
   33  B 12  S    0.000279   0.000016  -0.000008   0.000031  -0.000002
   34  B 12  X   -0.000100   0.000021   0.000037  -0.000022   0.000099
   35  B 12  Y    0.000323  -0.000018   0.000012  -0.000014  -0.000053
   36  B 12  Z    0.000220  -0.000001   0.000015  -0.000072   0.000078
   37  H 13  S   -0.001863   0.000069  -0.000028   0.000006   0.000010
   38  H 14  S   -0.000072   0.000016  -0.000005   0.000120  -0.000042
   39  H 15  S   -0.000088   0.000001   0.000012  -0.000025   0.000125
   40  H 16  S   -0.006497   0.000072  -0.000042  -0.000082  -0.000007
   41  C 17  S   -0.000180  -0.000078   0.000157  -0.001655   0.992029
   42  C 17  S    0.000179  -0.000061   0.000013   0.000116   0.036797
   43  C 17  X   -0.000019  -0.000041   0.000046   0.000043  -0.000248
   44  C 17  Y    0.000002  -0.000032  -0.000019  -0.000099  -0.000226
   45  C 17  Z    0.000018  -0.000019  -0.000024   0.000064  -0.000340
   46  H 18  S   -0.000027  -0.000002   0.000010  -0.000078  -0.006761
   47  H 19  S   -0.000202  -0.000016   0.000000  -0.000000  -0.006757
   48  H 20  S   -0.000017   0.000006   0.000009   0.000007  -0.006679

                      6          7          8          9         10
                  -11.0245    -7.3128    -1.1310    -0.9775    -0.9485
                     A          A          A          A          A   
    1  C  1  S    0.006168   0.000024  -0.086245  -0.009274  -0.148609
    2  C  1  S   -0.005330   0.000184   0.222079   0.029669   0.425151
    3  C  1  X    0.001561   0.000040   0.031577  -0.073011   0.036811
    4  C  1  Y   -0.003095  -0.000135   0.031819   0.040871  -0.018159
    5  C  1  Z    0.002284   0.000082  -0.038118  -0.015965  -0.015200
    6  C  2  S    0.992087   0.000591  -0.097647  -0.128474  -0.018186
    7  C  2  S    0.035214  -0.003715   0.248274   0.359655   0.052603
    8  C  2  X    0.002145   0.000802   0.066957  -0.018384  -0.032526
    9  C  2  Y   -0.000105  -0.002381  -0.004319   0.012075  -0.094795
   10  C  2  Z   -0.001468  -0.002098  -0.014990  -0.059728   0.055851
   11  C  3  S   -0.000040   0.000076  -0.124987  -0.052294   0.127311
   12  C  3  S   -0.006768  -0.000092   0.336962   0.157555  -0.381357
   13  C  3  X    0.003694   0.000162   0.010855  -0.135698  -0.065826
   14  C  3  Y    0.002219  -0.000080  -0.064647  -0.010189  -0.008821
   15  C  3  Z   -0.001769  -0.000185   0.047226  -0.008661   0.012315
   16  C  4  S    0.000455  -0.000004  -0.122121   0.098955   0.089076
   17  C  4  S    0.000201   0.000067   0.320488  -0.283259  -0.260424
   18  C  4  X    0.000021   0.000052  -0.072743  -0.010983   0.032999
   19  C  4  Y   -0.000003   0.000051  -0.024065   0.055395  -0.092453
   20  C  4  Z   -0.000123   0.000031  -0.009797  -0.014603   0.051469
   21  C  5  S    0.000969  -0.000003  -0.103331   0.100075  -0.096032
   22  C  5  S    0.000124   0.000005   0.266396  -0.282983   0.277861
   23  C  5  X    0.000109   0.000026  -0.029544  -0.028925  -0.083199
   24  C  5  Y   -0.000166   0.000033   0.060093  -0.040298  -0.049435
   25  C  5  Z    0.000163   0.000022  -0.007881   0.011035   0.039226
   26  H  6  S    0.000013  -0.000045   0.036108   0.010713   0.117568
   27  H  7  S   -0.000012  -0.000653   0.038523   0.003216   0.105612
   28  H  8  S    0.000012  -0.000193   0.059486  -0.069654  -0.064839
   29  H  9  S   -0.000092  -0.000016   0.054654  -0.075716  -0.078942
   30  H 10  S   -0.000138   0.000005   0.042692  -0.072697   0.076607
   31  H 11  S   -0.000092  -0.000018   0.053200  -0.068210   0.071768
   32  B 12  S    0.000449   0.990472  -0.009971  -0.017635   0.002716
   33  B 12  S   -0.003172   0.038642   0.018198   0.035726  -0.005174
   34  B 12  X   -0.000674   0.000446   0.003849   0.002322  -0.005968
   35  B 12  Y    0.002246   0.000592  -0.006815  -0.013320  -0.003560
   36  B 12  Z    0.001845  -0.000074  -0.006734  -0.012922   0.005275
   37  H 13  S    0.000407  -0.006099   0.011146   0.014673  -0.017470
   38  H 14  S    0.000158  -0.006647   0.003623   0.006848   0.001444
   39  H 15  S    0.000145  -0.006634   0.002631   0.009598  -0.000579
   40  H 16  S    0.000091  -0.000002   0.060421   0.050812  -0.122564
   41  C 17  S    0.008420   0.000040  -0.030855  -0.132616  -0.023746
   42  C 17  S   -0.005028   0.000156   0.082184   0.373346   0.068114
   43  C 17  X   -0.003437  -0.000140   0.024744   0.043995   0.001127
   44  C 17  Y   -0.000376  -0.000177   0.001925   0.004707  -0.012081
   45  C 17  Z   -0.002133  -0.000133   0.012798   0.019241   0.010155
   46  H 18  S   -0.000055  -0.000085   0.014734   0.090020   0.026114
   47  H 19  S    0.000001  -0.000038   0.016252   0.096369   0.010238
   48  H 20  S   -0.000017  -0.000675   0.012473   0.084392   0.016417

                     11         12         13         14         15
                   -0.8700    -0.7733    -0.7205    -0.6479    -0.6321
                     A          A          A          A          A   
    1  C  1  S    0.074342   0.083186   0.076820   0.004652  -0.000482
    2  C  1  S   -0.220753  -0.262676  -0.245581  -0.013426   0.003991
    3  C  1  X    0.027575   0.106912   0.009132   0.023816  -0.208027
    4  C  1  Y   -0.032287  -0.036175   0.171635   0.004470  -0.051169
    5  C  1  Z   -0.002675  -0.070098  -0.100840   0.183111  -0.087940
    6  C  2  S    0.045409   0.005217  -0.107791  -0.019155  -0.076701
    7  C  2  S   -0.133309  -0.020283   0.343689   0.071479   0.269057
    8  C  2  X   -0.154001   0.032970   0.059658  -0.081864  -0.128738
    9  C  2  Y   -0.009992   0.092980   0.042940   0.167329  -0.072829
   10  C  2  Z   -0.055033  -0.106743   0.003825   0.038666  -0.027346
   11  C  3  S    0.076901  -0.062413   0.065186   0.007365   0.036943
   12  C  3  S   -0.239284   0.205740  -0.220312  -0.026078  -0.128574
   13  C  3  X    0.079311  -0.138856  -0.166451  -0.158860  -0.083915
   14  C  3  Y    0.010174   0.031732  -0.196797   0.188756   0.042866
   15  C  3  Z   -0.008995  -0.120492   0.275593  -0.053017  -0.137480
   16  C  4  S   -0.076550   0.096615  -0.012644   0.000675  -0.021294
   17  C  4  S    0.233464  -0.308433   0.039484   0.002280   0.073588
   18  C  4  X    0.072566  -0.068301  -0.017636   0.173744   0.320938
   19  C  4  Y   -0.055107  -0.137394  -0.104601   0.050436  -0.025001
   20  C  4  Z    0.017523  -0.049085   0.113595   0.199832  -0.206051
   21  C  5  S   -0.058103  -0.120561  -0.014562  -0.018142   0.011574
   22  C  5  S    0.174427   0.383092   0.046368   0.060801  -0.039993
   23  C  5  X    0.090008   0.050415   0.064887   0.169607   0.105638
   24  C  5  Y    0.023137  -0.123445   0.089582  -0.089553  -0.106814
   25  C  5  Z   -0.029143  -0.065435  -0.044033   0.219571  -0.170143
   26  H  6  S   -0.057022  -0.098902  -0.179890  -0.034836   0.119459
   27  H  7  S   -0.069136  -0.129691  -0.122784   0.130817  -0.074812
   28  H  8  S    0.070336  -0.173484   0.046353   0.177363  -0.069781
   29  H  9  S    0.094178  -0.130631  -0.046210   0.020915   0.321637
   30  H 10  S    0.066984   0.166736  -0.002736   0.226782   0.001500
   31  H 11  S    0.056771   0.198375   0.008723  -0.104225   0.140303
   32  B 12  S    0.010796   0.003422  -0.031503  -0.101034  -0.010044
   33  B 12  S   -0.022806  -0.008544   0.073422   0.241268   0.026449
   34  B 12  X   -0.011381   0.000342   0.003722   0.010813  -0.018711
   35  B 12  Y    0.007026   0.008911  -0.020763  -0.001757  -0.014113
   36  B 12  Z    0.004803  -0.009118  -0.011971  -0.013628  -0.005994
   37  H 13  S   -0.020139   0.006801   0.017602   0.131032  -0.018265
   38  H 14  S   -0.007972  -0.011076   0.025457   0.110523   0.006026
   39  H 15  S   -0.000347  -0.000656   0.023961   0.109385   0.015025
   40  H 16  S   -0.075115   0.153863  -0.310447   0.103784   0.041748
   41  C 17  S   -0.164150   0.009523   0.028958   0.010190   0.029921
   42  C 17  S    0.483178  -0.030177  -0.089135  -0.032253  -0.095896
   43  C 17  X   -0.045630   0.024236   0.079127   0.018139   0.168706
   44  C 17  Y   -0.010698   0.027980   0.025423   0.097251  -0.013019
   45  C 17  Z   -0.033399  -0.021421   0.069179   0.045498   0.141194
   46  H 18  S    0.153603  -0.032814  -0.066270  -0.088331  -0.057008
   47  H 19  S    0.153559   0.015323  -0.067383  -0.015345  -0.118363
   48  H 20  S    0.149572  -0.016685  -0.046203   0.026849  -0.100837

                     16         17         18         19         20
                   -0.5927    -0.5493    -0.5360    -0.5191    -0.5110
                     A          A          A          A          A   
    1  C  1  S    0.001610   0.015527  -0.016806   0.001360   0.015435
    2  C  1  S   -0.007084  -0.055081   0.055637  -0.006296  -0.059375
    3  C  1  X   -0.020463  -0.069670   0.044207  -0.030766  -0.103994
    4  C  1  Y   -0.012661  -0.255974  -0.186622  -0.096216  -0.000587
    5  C  1  Z   -0.005183  -0.253145   0.001552   0.060165   0.193846
    6  C  2  S    0.032247   0.002439   0.024383  -0.019034  -0.003421
    7  C  2  S   -0.103061  -0.008589  -0.095696   0.067373   0.005951
    8  C  2  X   -0.029048  -0.025578   0.107729  -0.025798   0.132639
    9  C  2  Y    0.048934  -0.013572   0.137169   0.130577   0.064179
   10  C  2  Z    0.152238  -0.055417  -0.123788   0.004453   0.013359
   11  C  3  S   -0.001919  -0.012033   0.011479  -0.022449  -0.036907
   12  C  3  S    0.012436   0.047448  -0.042028   0.086660   0.145098
   13  C  3  X    0.190060   0.039406  -0.142158   0.047034   0.074317
   14  C  3  Y    0.019503   0.039781  -0.085090  -0.061191  -0.148560
   15  C  3  Z    0.102167   0.108966   0.099029   0.163058   0.256945
   16  C  4  S    0.007021   0.001620  -0.009900   0.002107   0.011840
   17  C  4  S   -0.026879  -0.008782   0.034149  -0.009295  -0.046256
   18  C  4  X   -0.124009  -0.059907   0.105973  -0.037285  -0.038585
   19  C  4  Y    0.011454   0.292012   0.045358   0.156985   0.157952
   20  C  4  Z   -0.192118   0.251746  -0.027839  -0.082876  -0.239825
   21  C  5  S   -0.003546   0.000280   0.014716   0.007092   0.014602
   22  C  5  S    0.011924  -0.002917  -0.051958  -0.027982  -0.059359
   23  C  5  X   -0.074092  -0.076838  -0.132591   0.028803   0.230453
   24  C  5  Y   -0.033199  -0.221671  -0.031050  -0.179920  -0.273618
   25  C  5  Z   -0.187637  -0.010918  -0.091390   0.008896   0.087325
   26  H  6  S    0.017365   0.229134   0.136168   0.070721   0.010142
   27  H  7  S   -0.001602  -0.274225  -0.005310   0.018401   0.140632
   28  H  8  S   -0.152726   0.285081   0.031730  -0.018672  -0.150948
   29  H  9  S    0.000125  -0.160545   0.113467   0.024791   0.095022
   30  H 10  S   -0.106675   0.052548  -0.132034   0.096191   0.294148
   31  H 11  S    0.157716   0.105038   0.074226   0.052731   0.005718
   32  B 12  S   -0.159093  -0.015564  -0.027815   0.082104   0.008515
   33  B 12  S    0.387597   0.037846   0.066237  -0.202931  -0.022032
   34  B 12  X   -0.012581   0.016700   0.006813  -0.001616   0.052768
   35  B 12  Y    0.030680   0.028898   0.034808  -0.046356  -0.015718
   36  B 12  Z    0.029423  -0.013740  -0.000210  -0.082035   0.009596
   37  H 13  S    0.178164   0.073440   0.054025  -0.086561   0.024132
[...]
 19   H            X -0.00922744  0.10694279  0.00054904 -0.00002371 -0.00022193
                   Y -0.00658960  0.05679344 -0.00046863  0.00203174  0.00261369
                   Z -0.01032700  0.03544228  0.00118601 -0.00098035 -0.00147053
 20   H            X  0.00087349 -0.06620052 -0.00017767 -0.00076378 -0.00077617
                   Y -0.00131434 -0.08630979  0.00007676 -0.00013430 -0.00010100
                   Z  0.00008695 -0.05435410  0.00003687  0.00199530  0.00076134

 TRANS. SAYVETZ    X  0.00000003  0.00000028 -0.00000030 -0.00000020 -0.00000008
                   Y  0.00000005  0.00000069 -0.00000001  0.00000010  0.00000002
                   Z -0.00000010  0.00000012 -0.00000042 -0.00000003  0.00000005
               TOTAL  0.00000011  0.00000076  0.00000051  0.00000022  0.00000009

   ROT. SAYVETZ    X  0.00016235  0.00923943  0.01186917  0.01359253  0.00127392
                   Y  0.00088097 -0.01289105 -0.01695364 -0.01945005 -0.00225389
                   Z -0.00073871  0.01094967  0.01390156  0.01587340  0.00209846
               TOTAL  0.00116110  0.01927281  0.02493104  0.02854866  0.00333263

                           51          52          53          54          55
       FREQUENCY:      3569.86     3607.44     3610.22     3633.78     3727.68  
        SYMMETRY:         A           A           A           A           A   
    REDUCED MASS:      1.03944     1.06720     1.06723     1.06843     1.10997
    IR INTENSITY:      0.00957     0.02477     0.02110     0.01230     0.00136

  1   C            X  0.00036193 -0.02966951 -0.00227641  0.00486046  0.03060398
                   Y  0.00051514 -0.06385246 -0.00569432  0.00690651 -0.01569752
                   Z  0.00023007 -0.00412563 -0.00020028  0.00305552 -0.08386163
  2   C            X  0.00254261 -0.00045605 -0.00037805  0.00054672  0.00000383
                   Y -0.00015190  0.00145143  0.00032155 -0.00010778 -0.00063247
                   Z  0.00086747 -0.00094380 -0.00018713  0.00025640  0.00060387
  3   C            X  0.00032864  0.00020426 -0.00176035  0.00006098  0.00006354
                   Y  0.00024199  0.00025009 -0.00173587  0.00052920  0.00016360
                   Z -0.00003447  0.00001466  0.00122251 -0.00043401 -0.00033642
  4   C            X  0.00015571 -0.00541388  0.05956579 -0.00571855  0.00156183
                   Y  0.00004588 -0.00139990  0.01216654 -0.00203639  0.00576241
                   Z -0.00009836  0.00348058 -0.03558470  0.00687783  0.00732974
  5   C            X  0.00005674 -0.00185974 -0.00637810 -0.04290902 -0.00354634
                   Y -0.00008157  0.00525015  0.00303957  0.03205786  0.00504731
                   Z  0.00005533 -0.00299788 -0.00238846 -0.04610361  0.00471848
  6   H            X -0.00019923  0.04294859  0.00417848 -0.00223400  0.03275087
                   Y -0.00501797  0.57525771  0.04984084 -0.06624483  0.40389291
                   Z -0.00444254  0.51848498  0.04475059 -0.05867268  0.35888012
  7   H            X -0.00161303  0.28265046  0.02239118 -0.02071028 -0.38821610
                   Y -0.00066032  0.14301361  0.01172283 -0.00892113 -0.20560096
                   Z  0.00262880 -0.46209438 -0.03780098  0.03356570  0.62520231
  8   H            X -0.00105583  0.03257366 -0.32732020  0.02259348 -0.04696682
                   Y -0.00117194  0.03709611 -0.36682598  0.02749110 -0.05231824
                   Z -0.00091980  0.02497362 -0.25335399  0.01893299 -0.03456827
  9   H            X -0.00068331  0.03143029 -0.33642687  0.03979575  0.02648933
                   Y  0.00057350 -0.02290006  0.23965269 -0.03069125 -0.01832202
                   Z  0.00158580 -0.06180939  0.66017836 -0.07595548 -0.05164577
 10   H            X -0.00005470  0.00764519  0.00416699  0.05622025 -0.00018280
                   Y -0.00027912  0.01510657  0.01399086  0.18081940 -0.01052547
                   Z -0.00091451  0.04784223  0.06045653  0.63389777 -0.03818412
 11   H            X -0.00081509  0.04395233  0.05597335  0.41532521  0.03560501
                   Y  0.00112647 -0.05800623 -0.06969298 -0.53362992 -0.04802505
                   Z  0.00027348 -0.01228258 -0.01568686 -0.12749210 -0.01043753
 12   B            X -0.00019573 -0.00012958  0.00017242  0.00010423  0.00005651
                   Y  0.00006325  0.00011050  0.00044134 -0.00001066  0.00022422
                   Z  0.00013047  0.00013977  0.00003814 -0.00016780 -0.00032457
 13   H            X  0.00161993  0.00137541 -0.00493414 -0.00001043 -0.00108775
                   Y  0.00086269  0.00058779 -0.00136352 -0.00020661 -0.00058082
                   Z -0.00045348 -0.00037359  0.00095881 -0.00004653  0.00049646
 14   H            X -0.00003653  0.00023493  0.00015249  0.00085839 -0.00023762
                   Y  0.00017802  0.00143490 -0.00107212 -0.00183717 -0.00223401
                   Z -0.00044649 -0.00082531  0.00074826  0.00170717  0.00237548
 15   H            X  0.00183722  0.00057568 -0.00009780 -0.00013203  0.00047983
                   Y -0.00030897 -0.00057815 -0.00010409  0.00013133 -0.00035959
                   Z  0.00116095  0.00022513 -0.00004017  0.00004065  0.00054094
 16   H            X -0.00002104  0.00045226 -0.00135150  0.00167964  0.00034409
                   Y -0.00304259  0.00189371  0.02350850 -0.01100531 -0.00512638
                   Z  0.00244582 -0.00221806 -0.01842771  0.00885445  0.00258155
 17   C            X -0.04619849 -0.00040398  0.00009209 -0.00008084 -0.00099446
                   Y -0.00902751  0.00019610 -0.00003699 -0.00013114  0.00128274
                   Z -0.02331260 -0.00003701  0.00010072 -0.00004164  0.00164849
 18   H            X  0.04703202  0.00027238 -0.00034415  0.00000706 -0.00102299
                   Y  0.46809654  0.00223343 -0.00112502  0.00089811 -0.01192849
                   Z  0.43147691  0.00203147 -0.00107122  0.00077557 -0.01095359
 19   H            X  0.10287530  0.00167887  0.00000718  0.00001430  0.00126243
                   Y -0.44618362 -0.00524626  0.00076441  0.00005394 -0.00558355
                   Z  0.22339968  0.00288784 -0.00029070 -0.00004287  0.00301258
 20   H            X  0.36230293  0.00330889 -0.00010503  0.00030813  0.01043683
                   Y  0.08584398  0.00074045 -0.00009265  0.00010772  0.00277004
                   Z -0.39178634 -0.00348943  0.00015929 -0.00044765 -0.01149746

 TRANS. SAYVETZ    X -0.00000047 -0.00000020  0.00000023 -0.00000014  0.00000004
                   Y  0.00000001 -0.00000074 -0.00000021  0.00000025  0.00000013
                   Z -0.00000043 -0.00000016 -0.00000046  0.00000028 -0.00000003
               TOTAL  0.00000064  0.00000079  0.00000055  0.00000040  0.00000014

   ROT. SAYVETZ    X  0.00001329  0.00005255  0.00001223 -0.00001890 -0.00003870
                   Y -0.00004959 -0.00005126  0.00009281  0.00001912  0.00004207
                   Z  0.00004000  0.00003221 -0.00008413 -0.00000735 -0.00001890
               TOTAL  0.00006508  0.00008017  0.00012586  0.00002787  0.00006021

                           56          57          58          59          60
       FREQUENCY:      3732.38     3739.50     3740.56     3751.84     3768.42  
        SYMMETRY:         A           A           A           A           A   
    REDUCED MASS:      1.10996     1.10659     1.10167     1.11147     1.11002
    IR INTENSITY:      0.01045     0.03645     0.37159     0.00732     0.00780

  1   C            X  0.00312928  0.00108985  0.00116993  0.00186781 -0.00035141
                   Y -0.00091428 -0.00039271  0.00050997 -0.00216281 -0.00006737
                   Z -0.00787086 -0.00283483 -0.00157348 -0.00682370 -0.00012190
  2   C            X -0.00068959  0.00091469  0.00472297 -0.00040991 -0.00056384
                   Y -0.00103789  0.00117683  0.00368036 -0.00014747  0.00000174
                   Z  0.00038638 -0.00044582 -0.00142539 -0.00005273 -0.00041996
  3   C            X -0.00008890  0.00160129  0.00468103 -0.00011954  0.00026224
                   Y  0.01361223 -0.02142830 -0.06285500  0.00234303  0.00064563
                   Z -0.01076007  0.01701592  0.05040931 -0.00190519 -0.00028077
  4   C            X -0.01954771 -0.00304156 -0.00772971 -0.00110510 -0.00000245
                   Y -0.05609084 -0.00448562 -0.00973548 -0.00544730  0.00003419
                   Z -0.06576644 -0.00570170 -0.01257163 -0.00736126 -0.00000175
  5   C            X -0.00404576 -0.00061886 -0.00062765  0.02787714  0.00003813
                   Y  0.00828762  0.00093071  0.00035960 -0.05775237  0.00000559
                   Z  0.00729495  0.00028565 -0.00160324 -0.06497133 -0.00000006
  6   H            X  0.00256253  0.00099122 -0.00004680  0.00741708  0.00001893
                   Y  0.03408509  0.01380618  0.00268680  0.04587500  0.00098460
                   Z  0.03017054  0.01204004  0.00239818  0.03998111  0.00089935
  7   H            X -0.03631742 -0.01314668 -0.00931219 -0.03016769  0.00055773
                   Y -0.01972744 -0.00709977 -0.00459371 -0.01493253  0.00040107
                   Z  0.06017997  0.02101312  0.01373331  0.04694944 -0.00106832
  8   H            X  0.44928475  0.04176911  0.09693323  0.04297063  0.00013729
                   Y  0.49511349  0.04553142  0.10469537  0.04899235  0.00007057
                   Z  0.33403417  0.03099245  0.07153691  0.03215341  0.00003449
  9   H            X -0.23026361 -0.01557937 -0.03268219 -0.03253551  0.00008761
                   Y  0.15962879  0.01103909  0.02306172  0.01832016 -0.00005768
                   Z  0.44493448  0.03186351  0.06690359  0.06225132 -0.00009764
 10   H            X -0.00582665 -0.00006832  0.00157347  0.06245238  0.00006827
                   Y -0.02106825 -0.00096333  0.00384055  0.18042603 -0.00002447
                   Z -0.06351592 -0.00214464  0.01677239  0.65149182 -0.00013924
 11   H            X  0.05553812  0.00560995  0.00112009 -0.38891695 -0.00045483
                   Y -0.06918076 -0.00711549 -0.00094631  0.49751221  0.00047321
                   Z -0.01618547 -0.00178520 -0.00069095  0.11373992  0.00009361
 12   B            X -0.00040264  0.00035263  0.00007882 -0.00006169  0.00020481
                   Y -0.00022330 -0.00002394  0.00031384  0.00014872 -0.00004128
                   Z  0.00016011 -0.00026669 -0.00095280 -0.00016946  0.00006175
 13   H            X  0.00287805 -0.00023087  0.00210506 -0.00012881 -0.00017928
                   Y  0.00125108  0.00114590  0.00313300 -0.00022368  0.00017106
                   Z  0.00047676  0.00042716 -0.00006517  0.00023994  0.00008270
 14   H            X -0.00020287  0.00025850  0.00153542  0.00096533 -0.00011909
                   Y  0.00097506 -0.00056332 -0.00290696 -0.00177758  0.00028094
                   Z  0.00017138 -0.00095587 -0.00174412  0.00151596 -0.00048448
 15   H            X  0.00087261 -0.00196710  0.00112234  0.00090997 -0.00202061
                   Y -0.00010606  0.00077558 -0.00019274 -0.00050352  0.00084677
                   Z  0.00078370 -0.00101065 -0.00023008  0.00063462 -0.00154750
 16   H            X  0.01787010 -0.02787237 -0.08183928  0.00248604  0.00089180
                   Y -0.14822265  0.23201601  0.67852230 -0.02344526 -0.00515724
                   Z  0.12145586 -0.18814554 -0.55236795  0.01886225  0.00398148
 17   C            X -0.00061150  0.03211343 -0.01180889  0.00030638 -0.01633557
                   Y  0.00120002 -0.04888360  0.01630497 -0.00033139 -0.07481548
                   Z  0.00128919 -0.06222471  0.02172133 -0.00054657  0.05009937
 18   H            X -0.00125784  0.04881952 -0.01662881  0.00047109  0.01119455
                   Y -0.01114261  0.48165885 -0.16402577  0.00375519  0.12821586
                   Z -0.01032940  0.43962701 -0.14936092  0.00344144  0.12256777
 19   H            X  0.00111221 -0.04438036  0.01466900 -0.00032607 -0.15489897
                   Y -0.00529101  0.19712908 -0.06495806  0.00127034  0.67675481
                   Z  0.00272498 -0.10386586  0.03446882 -0.00071446 -0.34002921
 20   H            X  0.00836259 -0.37977438  0.13480400 -0.00327729  0.34433468
                   Y  0.00218665 -0.09691564  0.03426201 -0.00082985  0.08092688
                   Z -0.00855536  0.40670143 -0.14530804  0.00362549 -0.37167579

 TRANS. SAYVETZ    X -0.00000004  0.00000008  0.00000017  0.00000001  0.00000001
                   Y  0.00000002 -0.00000004  0.00000003 -0.00000000 -0.00000010
                   Z -0.00000002  0.00000015  0.00000019  0.00000002  0.00000005
               TOTAL  0.00000005  0.00000018  0.00000026  0.00000003  0.00000011

   ROT. SAYVETZ    X -0.00053091  0.00087621  0.00259720 -0.00010651 -0.00000558
                   Y -0.00005656  0.00001647 -0.00001425  0.00000995  0.00002021
                   Z  0.00008153 -0.00006028 -0.00012600  0.00000379 -0.00000078
               TOTAL  0.00054010  0.00087844  0.00260030  0.00010704  0.00002098

 REFERENCE ON SAYVETZ CONDITIONS - A. SAYVETZ, J.CHEM.PHYS., 7, 383-389(1939).

 NOTE - THE MODES J,K ARE ORTHONORMALIZED ACCORDING TO
 SUM ON I   M(I) * (X(I,J)*X(I,K) + Y(I,J)*Y(I,K) + Z(I,J)*Z(I,K)) = DELTA(J,K)

  MODE FREQ(CM**-1)  SYMMETRY  RED. MASS  IR INTENS.
     1     123.177    A        1.396492    0.044154
     2      49.535    A        2.951582    0.107556
     3       2.891    A        3.138491    0.006125
     4       0.002    A        4.805523    0.000000
     5       0.005    A        4.805572    0.000000
     6       0.020    A        4.805920    0.000000
     7      70.444    A        1.844196    0.180238
     8     198.167    A        1.704203    0.240853
     9     219.578    A        1.397055    0.019883
    10     232.523    A        1.683741    0.354306
    11     300.859    A        3.376902    0.661842
    12     351.885    A        2.279526    0.051694
    13     365.495    A        2.531340    0.046733
    14     421.488    A        2.550803    0.072057
    15     546.241    A        3.239471    0.475314
    16     655.633    A        3.590366    0.025869
    17     760.655    A        2.128546    0.034700
    18     932.872    A        1.743872    0.269261
    19     962.304    A        1.157901    1.072792
    20    1000.537    A        1.998211    0.040166
    21    1036.313    A        1.498010    0.190267
    22    1060.297    A        1.455632    0.081118
    23    1085.973    A        1.974011    0.019534
    24    1117.943    A        1.768906    0.020717
    25    1150.899    A        1.201474    0.145878
    26    1208.309    A        1.313715    0.189427
    27    1242.122    A        1.603860    0.018504
    28    1252.771    A        1.250111    0.064112
    29    1301.738    A        1.619448    0.021956
    30    1371.657    A        1.293552    0.153706
    31    1385.577    A        1.835549    0.044838
    32    1439.434    A        1.147138    5.052804
    33    1468.346    A        1.219579    0.309335
    34    1486.213    A        1.280116    0.013976
    35    1500.753    A        1.409092    0.095003
    36    1532.679    A        1.103076    0.145287
    37    1542.896    A        1.080289    0.566721
    38    1614.760    A        1.848023    0.110423
    39    1628.122    A        1.691507    0.014184
    40    1640.912    A        1.927615    0.000375
    41    1720.563    A        1.310984    0.026172
    42    1801.670    A        1.064306    0.062132
    43    1803.898    A        1.092555    0.034643
    44    1809.052    A        1.098232    0.040400
    45    1811.413    A        1.087949    0.047592
    46    1829.332    A        1.126295    0.004873
    47    1918.412    A        5.198686    0.100204
    48    3103.218    A        1.021180    0.050386
    49    3277.331    A        1.117315    0.335317
    50    3315.149    A        1.130698    0.691345
    51    3569.858    A        1.039443    0.009568
    52    3607.438    A        1.067199    0.024767
    53    3610.218    A        1.067229    0.021104
    54    3633.785    A        1.068428    0.012303
    55    3727.685    A        1.109970    0.001358
    56    3732.380    A        1.109956    0.010453
    57    3739.499    A        1.106586    0.036449
    58    3740.562    A        1.101669    0.371593
    59    3751.842    A        1.111471    0.007322
    60    3768.425    A        1.110018    0.007799

     -------------------------------
     THERMOCHEMISTRY AT T=  298.15 K
     -------------------------------

 USING IDEAL GAS, RIGID ROTOR, HARMONIC NORMAL MODE APPROXIMATIONS.
 P=  1.01325E+05 PASCAL.
 ALL FREQUENCIES ARE SCALED BY   1.00000
 THE MOMENTS OF INERTIA ARE (IN AMU*BOHR**2)
            467.68815           756.41790           912.04148
 THE ROTATIONAL SYMMETRY NUMBER IS  1.0
 THE ROTATIONAL CONSTANTS ARE (IN GHZ)
      3.85532     2.38372     1.97698
   1 IMAGINARY FREQUENCY VIBRATION(S) IS(ARE) EXCLUDED
     FROM THE FOLLOWING THERMOCHEMICAL ANALYSIS.
      8 -     60 VIBRATIONAL MODES ARE USED IN THERMOCHEMISTRY.
 THE HARMONIC ZERO POINT ENERGY IS (SCALED BY   1.000)
        0.212525 HARTREE/MOLECULE    46643.840642 CM**-1/MOLECULE 
      133.361566 KCAL/MOL              557.984794 KJ/MOL

               Q               LN Q
 ELEC.     1.00000E+00       0.000000
 TRANS.    3.70351E+07      17.427377
 ROT.      2.03333E+05      12.222600
 VIB.      1.01689E+01       2.319334
 TOT.      7.65765E+13      31.969311

              E         H         G         CV        CP        S
           KJ/MOL    KJ/MOL    KJ/MOL   J/MOL-K   J/MOL-K   J/MOL-K
 ELEC.      0.000     0.000     0.000     0.000     0.000     0.000
 TRANS.     3.718     6.197   -43.201    12.472    20.786   165.684
 ROT.       3.718     3.718   -30.299    12.472    12.472   114.095
 VIB.     567.987   567.987   552.235    78.842    78.842    52.833
 TOTAL    575.424   577.903   478.735   103.785   112.099   332.613
 VIB. THERMAL CORRECTION E(T)-E(0) = H(T)-H(0) =     10002.697 J/MOL

              E         H         G         CV        CP        S
         KCAL/MOL  KCAL/MOL  KCAL/MOL CAL/MOL-K CAL/MOL-K CAL/MOL-K
 ELEC.      0.000     0.000     0.000     0.000     0.000     0.000
 TRANS.     0.889     1.481   -10.325     2.981     4.968    39.600
 ROT.       0.889     0.889    -7.242     2.981     2.981    27.269
 VIB.     135.752   135.752   131.987    18.844    18.844    12.627
 TOTAL    137.530   138.122   114.420    24.805    26.792    79.496
 VIB. THERMAL CORRECTION E(T)-E(0) = H(T)-H(0) =      2390.702 CAL/MOL

     *******************************************************
     * THIS IS NOT A STATIONARY POINT ON THE MOLECULAR PES *
     *     THE VIBRATIONAL ANALYSIS IS NOT VALID !!!       *
     *******************************************************
 ......END OF NORMAL COORDINATE ANALYSIS......
 STEP CPU TIME =     0.01 TOTAL CPU TIME =        179.6 (      3.0 MIN)
 TOTAL WALL CLOCK TIME=        180.3 SECONDS, CPU UTILIZATION IS    99.62%
               580000  WORDS OF DYNAMIC MEMORY USED
 EXECUTION OF GAMESS TERMINATED NORMALLY Sun Nov 14 01:25:41 2021
 DDI: 263640 bytes (0.3 MB / 0 MWords) used by master data server.

 ----------------------------------------
 CPU timing information for all processes
 ========================================
 0: 176.377 + 3.226 = 179.604
 ----------------------------------------
 ddikick.x: exited gracefully.
----- accounting info -----
Files used on the master node chemcompute-node-0.novalocal were:
-rw-r--r--. 1 chemcomp chemcomp     1350 Nov 14 01:22 /scratch/306303/342211.F05
-rw-rw-r--. 1 chemcomp chemcomp  8100720 Nov 14 01:25 /scratch/306303/342211.F08
-rw-rw-r--. 1 chemcomp chemcomp 85196800 Nov 14 01:25 /scratch/306303/342211.F10
-rw-rw-r--. 1 chemcomp chemcomp   564960 Nov 14 01:25 /scratch/306303/342211.F18
Sun Nov 14 01:25:44 UTC 2021
0.197u 0.109s 3:04.57 0.1%	0+0k 8+216io 0pf+0w
Finishing Up...
Looking for IR data...
Looking for Raman data...
vibramans not found
Looking for thermodynamics data...
Looking for UV-Vis data...
306303
