----- GAMESS execution script 'rungms' -----
This job is running on host chemcompute-node-0.novalocal
under operating system Linux at Sun Nov 14 01:30:50 UTC 2021
SLURM has assigned the following compute nodes to this run:
chemcompute-node-0
Available scratch disk space (Kbyte units) at beginning of the job is
Filesystem     1K-blocks     Used Available Use% Mounted on
/dev/sda1       62903276 16677036  46226240  27% /
GAMESS temporary binary files will be written to /scratch/306305
GAMESS supplementary output files will be written to /data/slurm/342213
Copying input file 342213.inp to your run's scratch directory...
The generated host list is
chemcompute-node-0.novalocal

 Distributed Data Interface kickoff program.
 Initiating 1 compute processes on 1 nodes to run the following command:
 /data/gamess-2019R1-ddi/gamess.00.x 342213 

          ******************************************************
          *         GAMESS VERSION = 30 JUN 2019 (R1)          *
          *             FROM IOWA STATE UNIVERSITY             *
          * M.W.SCHMIDT, K.K.BALDRIDGE, J.A.BOATZ, S.T.ELBERT, *
          *   M.S.GORDON, J.H.JENSEN, S.KOSEKI, N.MATSUNAGA,   *
          *          K.A.NGUYEN, S.J.SU, T.L.WINDUS,           *
          *       TOGETHER WITH M.DUPUIS, J.A.MONTGOMERY       *
          *         J.COMPUT.CHEM.  14, 1347-1363(1993)        *
          **************** 64 BIT LINUX VERSION ****************

  SINCE 1993, STUDENTS AND POSTDOCS WORKING AT IOWA STATE UNIVERSITY
  AND ALSO IN THEIR VARIOUS JOBS AFTER LEAVING ISU HAVE MADE IMPORTANT
  CONTRIBUTIONS TO THE CODE:
     IVANA ADAMOVIC, CHRISTINE AIKENS, YURI ALEXEEV, POOJA ARORA,
     ANDREY ASADCHEV, ROB BELL, PRADIPTA BANDYOPADHYAY, JONATHAN BENTZ,
     COLLEEN BERTONI, BRETT BODE, KURT BRORSEN, CALEB CARLIN, GALINA CHABAN,
     WEI CHEN, CHEOL HO CHOI, PAUL DAY, ALBERT DEFUSCO, NUWAN DESILVA,
     TIM DUDLEY, DMITRI FEDOROV, ALEX FINDLATER, GRAHAM FLETCHER, 
     MARK FREITAG, KURT GLAESEMANN, ANASTASIA GUNINA,
     DAN KEMP, GRANT MERRILL, NORIYUKI MINEZAWA, JONATHAN MULLIN,
     TAKESHI NAGATA, SEAN NEDD, HEATHER NETZLOFF, BOSILJKA NJEGIC, RYAN OLSON,
     MIKE PAK, BUU PHAM,
     SPENCER PRUITT, LUKE ROSKOP, JIM SHOEMAKER, LYUDMILA SLIPCHENKO,
     TONY SMITH, SAROM SOK LEANG, JIE SONG, TETSUYA TAKETSUGU, SIMON WEBB,
     PENG XU, SOOHAENG YOO, FEDERICO ZAHARIEV

  ADDITIONAL CODE HAS BEEN PROVIDED BY COLLABORATORS IN OTHER GROUPS:
     IOWA STATE UNIVERSITY:
          JOE IVANIC, AARON WEST, LAIMUTIS BYTAUTAS, KLAUS RUEDENBERG
     UNIVERSITY OF TOKYO: KIMIHIKO HIRAO, TAKAHITO NAKAJIMA,
          TAKAO TSUNEDA, MUNEAKI KAMIYA, SUSUMU YANAGISAWA,
          KIYOSHI YAGI, MAHITO CHIBA, SEIKEN TOKURA, NAOAKI KAWAKAMI
     UNIVERSITY OF AARHUS: FRANK JENSEN
     UNIVERSITY OF IOWA: VISVALDAS KAIRYS, HUI LI
     NATIONAL INST. OF STANDARDS AND TECHNOLOGY: WALT STEVENS, DAVID GARMER
     UNIVERSITY OF PISA: BENEDETTA MENNUCCI, JACOPO TOMASI
     UNIVERSITY OF MEMPHIS: HENRY KURTZ, PRAKASHAN KORAMBATH
     UNIVERSITY OF ALBERTA: TOBY ZENG, MARIUSZ KLOBUKOWSKI
     UNIVERSITY OF NEW ENGLAND: MARK SPACKMAN
     MIE UNIVERSITY: HIROAKI UMEDA
     NAT. INST. OF ADVANCED INDUSTRIAL SCIENCE AND TECHNOLOGY: KAZUO KITAURA
     MICHIGAN STATE UNIVERSITY:
          KAROL KOWALSKI, MARTA WLOCH, JEFFREY GOUR, JESSE LUTZ,
          WEI LI, JUN SHEN, J. EMILIANO DEUSTUA, PIOTR PIECUCH
     UNIVERSITY OF MINNESOTA:
          YINAN SHU
     UNIVERSITY OF SILESIA: MONIKA MUSIAL, STANISLAW KUCHARSKI
     FACULTES UNIVERSITAIRES NOTRE-DAME DE LA PAIX:
          OLIVIER QUINET, BENOIT CHAMPAGNE
     UNIVERSITY OF CALIFORNIA - SANTA BARBARA: BERNARD KIRTMAN
     INSTITUTE FOR MOLECULAR SCIENCE:
          KAZUYA ISHIMURA, MICHIO KATOUDA, AND SHIGERU NAGASE
     UNIVERSITY OF NOTRE DAME: ANNA POMOGAEVA, DAN CHIPMAN
     KYUSHU UNIVERSITY:
          HARUYUKI NAKANO,
          FENG LONG GU, JACEK KORCHOWIEC, MARCIN MAKOWSKI, AND YURIKO AOKI,
          HIROTOSHI MORI AND EISAKU MIYOSHI
     PENNSYLVANIA STATE UNIVERSITY:
          TZVETELIN IORDANOV, CHET SWALINA, JONATHAN SKONE,
          SHARON HAMMES-SCHIFFER
     WASEDA UNIVERSITY:
          MASATO KOBAYASHI, TOMOKO AKAMA, TSUGUKI TOUMA,
          TAKESHI YOSHIKAWA, YASUHIRO IKABATA, JUNJI SEINO,
          YUYA NAKAJIMA, HIROMI NAKAI
     NANJING UNIVERSITY: SHUHUA LI
     UNIVERSITY OF NEBRASKA:
          PEIFENG SU, DEJUN SI, NANDUN THELLAMUREGE, YALI WANG, HUI LI
     UNIVERSITY OF ZURICH: ROBERTO PEVERATI, KIM BALDRIDGE
     N. COPERNICUS UNIVERSITY AND JACKSON STATE UNIVERSITY:
          MARIA BARYSZ
     UNIVERSITY OF COPENHAGEN: Jimmy Kromann, CASPER STEINMANN
     TOKYO INSTITUTE OF TECHNOLOGY: HIROYA NAKATA
     NAGOYA UNIVERSITY: YOSHIO NISHIMOTO, STEPHAN IRLE
     MOSCOW STATE UNIVERSITY: VLADIMIR MIRONOV
     A.N.NESMEYANOV INSTITUTE OF ORGANOELEMENT COMPOUNDS OF RUSSIAN ACADEMY OF SCIENCES:
          IGOR S. GERASIMOV

 EXECUTION OF GAMESS BEGUN Sun Nov 14 01:30:50 2021

            ECHO OF THE FIRST FEW INPUT CARDS -
 INPUT CARD>!File created by the GAMESS Input Deck Generator Plugin for Avogadro            
 INPUT CARD> $BASIS GBASIS=STO NGAUSS=3 $END                                                
 INPUT CARD> $CONTRL SCFTYP=RHF RUNTYP=SADPOINT $END                                        
 INPUT CARD> $STATPT hssend=.t. OPTTOL=0.0005 NSTEP=50 $END                                 
 INPUT CARD> $STATPT HESS=calc ihrep=5 $END                                                 
 INPUT CARD> $FORCE nvib=2 $END                                                             
 INPUT CARD> $ZMAT DLC=.t. auto=.t. nonvdw(1)=2,12,3,13,17,2,2,3 $END                       
 INPUT CARD>!$ZMAT IFZMAT(1)=1,2,12,1,3,13 fvalue(1)=2.00,2.00 $END                         
 INPUT CARD>                                                                                
 INPUT CARD> $DATA                                                                          
 INPUT CARD>Title                                                                           
 INPUT CARD>C1                                                                              
 INPUT CARD>C     6.0    -1.16662204    -0.65688026     0.33732870                          
 INPUT CARD>C     6.0    -1.73197389     0.61620373    -0.31169492                          
 INPUT CARD>C     6.0    -0.72350264     1.48462808    -0.60838622                          
 INPUT CARD>C     6.0     0.64799678     0.89853424    -0.26594415                          
 INPUT CARD>C     6.0     0.31235197    -0.30978444     0.64674336                          
 INPUT CARD>H     1.0    -1.23731327    -1.46784353    -0.38772365                          
 INPUT CARD>H     1.0    -1.72257733    -0.95332968     1.22334635                          
 INPUT CARD>H     1.0     1.30482709     1.61896682     0.21457419                          
 INPUT CARD>H     1.0     1.12233889     0.57337892    -1.19201744                          
 INPUT CARD>H     1.0     0.41603813    -0.02436020     1.68953836                          
 INPUT CARD>H     1.0     0.97297466    -1.15200567     0.46064693                          
 INPUT CARD>B     5.0    -1.60612249     2.14742517     0.96874344                          
 INPUT CARD>H     1.0    -0.64468533     2.78058052     0.91289461                          
 INPUT CARD>H     1.0    -1.64533341     1.46339703     1.89685762                          
 INPUT CARD>H     1.0    -2.56222892     2.71843839     0.67009097                          
 INPUT CARD>H     1.0    -0.82508618     2.31663775    -1.29507017                          
 INPUT CARD>C     6.0    -3.14450407     0.61853600    -0.88446844                          
 INPUT CARD>H     1.0    -3.22735071    -0.18029249    -1.61934185                          
 INPUT CARD>H     1.0    -3.36811543     1.56442642    -1.36629200                          
 INPUT CARD>H     1.0    -3.87760258     0.43924332    -0.10300782                          
 INPUT CARD> $END                                                                           
    1000000 WORDS OF MEMORY AVAILABLE

     BASIS OPTIONS
     -------------
     GBASIS=STO          IGAUSS=       3      POLAR=NONE    
     NDFUNC=       0     NFFUNC=       0     DIFFSP=       F
     NPFUNC=       0      DIFFS=       F     BASNAM=        


     RUN TITLE
     ---------
 Title                                                                           

 THE POINT GROUP OF THE MOLECULE IS C1      
 THE ORDER OF THE PRINCIPAL AXIS IS     0

 ATOM      ATOMIC                      COORDINATES (BOHR)
           CHARGE         X                   Y                   Z
 C           6.0    -2.2045959868       -1.2413236981        0.6374588108
 C           6.0    -3.2729560700        1.1644562023       -0.5890179906
 C           6.0    -1.3672217410        2.8055402649       -1.1496832505
 C           6.0     1.2245363551        1.6979835042       -0.5025615715
 C           6.0     0.5902596350       -0.5854077069        1.2221677348
 H           1.0    -2.3381830413       -2.7738220646       -0.7326914575
 H           1.0    -3.2551991464       -1.8015318712        2.3117893896
 H           1.0     2.4657656615        3.0594036730        0.4054864231
 H           1.0     2.1209129675        1.0835290459       -2.2525863342
 H           1.0     0.7861980661       -0.0460341030        3.1927645461
 H           1.0     1.8386555004       -2.1769750526        0.8704964748
 B           5.0    -3.0351314088        4.0580451504        1.8306596540
 H           1.0    -1.2182786220        5.2545352696        1.7251206686
 H           1.0    -3.1092293033        2.7654193979        3.5845411395
 H           1.0    -4.8419105766        5.1371036716        1.2662883201
 H           1.0    -1.5591867965        4.3778105603       -2.4473277562
 C           6.0    -5.9422510596        1.1688635535       -1.6714029964
 H           1.0    -6.0988085082       -0.3407034037       -3.0601123770
 H           1.0    -6.3648152577        2.9563372618       -2.5819174992
 H           1.0    -7.3276063655        0.8300495167       -0.1946565544

          INTERNUCLEAR DISTANCES (ANGS.)
          ------------------------------

                1 C          2 C          3 C          4 C          5 C     

   1 C       0.0000000    1.5367489 *  2.3826014 *  2.4649734 *  1.5503474 *
   2 C       1.5367489 *  0.0000000    1.3635252 *  2.3970949 *  2.4403537 *
   3 C       2.3826014 *  1.3635252 *  0.0000000    1.5302886 *  2.4224494 *
   4 C       2.4649734 *  2.3970949 *  1.5302886 *  0.0000000    1.5510287 *
   5 C       1.5503474 *  2.4403537 *  2.4224494 *  1.5510287 *  0.0000000  
   6 H       1.0901191 *  2.1432971 *  3.0049596    3.0280304    2.1937833 *
   7 H       1.0871963 *  2.1954214 *  3.2088990    3.3566364    2.2107824 *
   8 H       3.3619354    3.2410883    2.1930418 *  1.0868979 *  2.2117546 *
   9 H       3.0152578    2.9872903 *  2.1396568 *  1.0901092 *  2.1947887 *
  10 H       2.1756300 *  3.0048648    2.9759127 *  2.1747301 *  1.0861120 *
  11 H       2.1995978 *  3.3226229    3.3125073    2.1996043 *  1.0864579 *
  12 B       2.9079158 *  2.0000000 *  1.9250080 *  2.8574877 *  3.1340241  
  13 H       3.5241780    2.7141007 *  2.0000001 *  2.5695887 *  3.2460919  
  14 H       2.6752329 *  2.3670546 *  2.6695448 *  3.2025216    2.9222406 *
  15 H       3.6675912    2.4642681 *  2.5568938 *  3.8070674    4.1753915  
  16 H       3.4092788    2.1635499 *  1.0835563 *  2.2891246 *  3.4586846  
  17 C       2.6516961 *  1.5242429 *  2.5860365 *  3.8527956    3.8931019  
  18 H       2.8813709 *  2.1402099 *  3.1722621    4.2442750    4.2049263  
  19 H       3.5613340    2.1652391 *  2.7522292 *  4.2170292    4.5946510  
  20 H       2.9571606 *  2.1630043 *  3.3610390    4.5517630    4.3219080  

                6 H          7 H          8 H          9 H         10 H     

   1 C       1.0901191 *  1.0871963 *  3.3619354    3.0152578    2.1756300 *
   2 C       2.1432971 *  2.1954214 *  3.2410883    2.9872903 *  3.0048648  
   3 C       3.0049596    3.2088990    2.1930418 *  2.1396568 *  2.9759127 *
   4 C       3.0280304    3.3566364    1.0868979 *  1.0901092 *  2.1747301 *
   5 C       2.1937833 *  2.2107824 *  2.2117546 *  2.1947887 *  1.0861120 *
   6 H       0.0000000    1.7594750 *  4.0439632    3.2220236    3.0219584  
   7 H       1.7594750 *  0.0000000    4.0987203    4.0321669    2.3778131 *
   8 H       4.0439632    4.0987203    0.0000000    1.7621169 *  2.3803338 *
   9 H       3.2220236    4.0321669    1.7621169 *  0.0000000    3.0264693  
  10 H       3.0219584    2.3778131 *  2.3803338 *  3.0264693    0.0000000  
  11 H       2.3884847 *  2.8084129 *  2.8016007 *  2.3938591 *  1.7583904 *
  12 B       3.8789420    3.1133688    3.0531405    3.8198181    3.0537404  
  13 H       4.4824014    3.8987584    2.3743623 *  3.5248785    3.0977415  
  14 H       3.7387114    2.5100104 *  3.3996656    4.2418500    2.5506186 *
  15 H       4.5165617    3.8069656    4.0460419    4.6523938    4.1751996  
  16 H       3.9135032    4.2238133    2.7022771 *  2.6157285 *  3.9910586  
  17 C       2.8700369 *  2.9892341 *  4.6909812    4.2781508    4.4403026  
  18 H       2.6711271 *  3.3079912    5.2097234    4.4351354    4.9241533  
  19 H       3.8330895    3.9690198    4.9334070    4.6018178    5.1168506  
  20 H       3.2694298    2.8883575 *  5.3244890    5.1189207    4.6758422  

               11 H         12 B         13 H         14 H         15 H     

   1 C       2.1995978 *  2.9079158 *  3.5241780    2.6752329 *  3.6675912  
   2 C       3.3226229    2.0000000 *  2.7141007 *  2.3670546 *  2.4642681 *
   3 C       3.3125073    1.9250080 *  2.0000001 *  2.6695448 *  2.5568938 *
   4 C       2.1996043 *  2.8574877 *  2.5695887 *  3.2025216    3.8070674  
   5 C       1.0864579 *  3.1340241    3.2460919    2.9222406 *  4.1753915  
   6 H       2.3884847 *  3.8789420    4.4824014    3.7387114    4.5165617  
   7 H       2.8084129 *  3.1133688    3.8987584    2.5100104 *  3.8069656  
   8 H       2.8016007 *  3.0531405    2.3743623 *  3.3996656    4.0460419  
   9 H       2.3938591 *  3.8198181    3.5248785    4.2418500    4.6523938  
  10 H       1.7583904 *  3.0537404    3.0977415    2.5506186 *  4.1751996  
  11 H       0.0000000    4.2185481    4.2762818    3.9697065    5.2461289  
  12 B       4.2185481    0.0000000    1.1525477 *  1.1536152 *  1.1529913 *
  13 H       4.2762818    1.1525477 *  0.0000000    1.9246953 *  1.9338533 *
  14 H       3.9697065    1.1536152 *  1.9246953 *  0.0000000    1.9800966 *
  15 H       5.2461289    1.1529913 *  1.9338533 *  1.9800966 *  0.0000000  
  16 H       4.2833459    2.4007296 *  2.2633815 *  3.4042956    2.6534820 *
  17 C       4.6795068    2.8528081 *  3.7621861    3.2706387    2.6768058 *
  18 H       4.7867853    3.8399005    4.6743075    4.1914380    3.7532027  
  19 H       5.4370739    2.9827667 *  3.7537706    3.6913860    2.4754903 *
  20 H       5.1359400    3.0374591    4.1189406    3.1672351    2.7427395 *

               16 H         17 C         18 H         19 H         20 H     

   1 C       3.4092788    2.6516961 *  2.8813709 *  3.5613340    2.9571606 *
   2 C       2.1635499 *  1.5242429 *  2.1402099 *  2.1652391 *  2.1630043 *
   3 C       1.0835563 *  2.5860365 *  3.1722621    2.7522292 *  3.3610390  
   4 C       2.2891246 *  3.8527956    4.2442750    4.2170292    4.5517630  
   5 C       3.4586846    3.8931019    4.2049263    4.5946510    4.3219080  
   6 H       3.9135032    2.8700369 *  2.6711271 *  3.8330895    3.2694298  
   7 H       4.2238133    2.9892341 *  3.3079912    3.9690198    2.8883575 *
   8 H       2.7022771 *  4.6909812    5.2097234    4.9334070    5.3244890  
   9 H       2.6157285 *  4.2781508    4.4351354    4.6018178    5.1189207  
  10 H       3.9910586    4.4403026    4.9241533    5.1168506    4.6758422  
  11 H       4.2833459    4.6795068    4.7867853    5.4370739    5.1359400  
  12 B       2.4007296 *  2.8528081 *  3.8399005    2.9827667 *  3.0374591  
  13 H       2.2633815 *  3.7621861    4.6743075    3.7537706    4.1189406  
  14 H       3.4042956    3.2706387    4.1914380    3.6913860    3.1672351  
  15 H       2.6534820 *  2.6768058 *  3.7532027    2.4754903 *  2.7427395 *
  16 H       0.0000000    2.9037635 *  3.4800413    2.6529026 *  3.7767021  
  17 C       2.9037635 *  0.0000000    1.0885906 *  1.0848339 *  1.0863977 *
  18 H       3.4800413    1.0885906 *  0.0000000    1.7685850 *  1.7623623 *
  19 H       2.6529026 *  1.0848339 *  1.7685850 *  0.0000000    1.7667770 *
  20 H       3.7767021    1.0863977 *  1.7623623 *  1.7667770 *  0.0000000  

  * ... LESS THAN  3.000


     ATOMIC BASIS SET
     ----------------
 THE CONTRACTED PRIMITIVE FUNCTIONS HAVE BEEN UNNORMALIZED
 THE CONTRACTED BASIS FUNCTIONS ARE NOW NORMALIZED TO UNITY

  SHELL TYPE  PRIMITIVE        EXPONENT          CONTRACTION COEFFICIENT(S)

 C         

      1   S       1            71.6168373    0.154328967295
      1   S       2            13.0450963    0.535328142282
      1   S       3             3.5305122    0.444634542185

      2   L       4             2.9412494   -0.099967229187    0.155916274999
      2   L       5             0.6834831    0.399512826089    0.607683718598
      2   L       6             0.2222899    0.700115468880    0.391957393099

 C         

      3   S       7            71.6168373    0.154328967295
      3   S       8            13.0450963    0.535328142282
      3   S       9             3.5305122    0.444634542185

      4   L      10             2.9412494   -0.099967229187    0.155916274999
      4   L      11             0.6834831    0.399512826089    0.607683718598
      4   L      12             0.2222899    0.700115468880    0.391957393099

 C         

      5   S      13            71.6168373    0.154328967295
      5   S      14            13.0450963    0.535328142282
      5   S      15             3.5305122    0.444634542185

      6   L      16             2.9412494   -0.099967229187    0.155916274999
      6   L      17             0.6834831    0.399512826089    0.607683718598
      6   L      18             0.2222899    0.700115468880    0.391957393099

 C         

      7   S      19            71.6168373    0.154328967295
      7   S      20            13.0450963    0.535328142282
      7   S      21             3.5305122    0.444634542185

      8   L      22             2.9412494   -0.099967229187    0.155916274999
      8   L      23             0.6834831    0.399512826089    0.607683718598
      8   L      24             0.2222899    0.700115468880    0.391957393099

 C         

      9   S      25            71.6168373    0.154328967295
      9   S      26            13.0450963    0.535328142282
      9   S      27             3.5305122    0.444634542185

     10   L      28             2.9412494   -0.099967229187    0.155916274999
     10   L      29             0.6834831    0.399512826089    0.607683718598
     10   L      30             0.2222899    0.700115468880    0.391957393099

 H         

     11   S      31             3.4252509    0.154328967295
     11   S      32             0.6239137    0.535328142282
     11   S      33             0.1688554    0.444634542185

 H         

     12   S      34             3.4252509    0.154328967295
     12   S      35             0.6239137    0.535328142282
     12   S      36             0.1688554    0.444634542185

 H         

     13   S      37             3.4252509    0.154328967295
     13   S      38             0.6239137    0.535328142282
     13   S      39             0.1688554    0.444634542185

 H         

     14   S      40             3.4252509    0.154328967295
     14   S      41             0.6239137    0.535328142282
     14   S      42             0.1688554    0.444634542185

 H         

     15   S      43             3.4252509    0.154328967295
     15   S      44             0.6239137    0.535328142282
     15   S      45             0.1688554    0.444634542185

 H         

     16   S      46             3.4252509    0.154328967295
     16   S      47             0.6239137    0.535328142282
     16   S      48             0.1688554    0.444634542185

 B         

     17   S      49            48.7911132    0.154328967295
     17   S      50             8.8873622    0.535328142282
     17   S      51             2.4052670    0.444634542185

     18   L      52             2.2369561   -0.099967229187    0.155916274999
     18   L      53             0.5198205    0.399512826089    0.607683718598
     18   L      54             0.1690618    0.700115468880    0.391957393099

 H         

     19   S      55             3.4252509    0.154328967295
     19   S      56             0.6239137    0.535328142282
     19   S      57             0.1688554    0.444634542185

 H         

     20   S      58             3.4252509    0.154328967295
     20   S      59             0.6239137    0.535328142282
     20   S      60             0.1688554    0.444634542185

 H         

     21   S      61             3.4252509    0.154328967295
     21   S      62             0.6239137    0.535328142282
     21   S      63             0.1688554    0.444634542185

 H         

     22   S      64             3.4252509    0.154328967295
     22   S      65             0.6239137    0.535328142282
     22   S      66             0.1688554    0.444634542185

 C         

     23   S      67            71.6168373    0.154328967295
     23   S      68            13.0450963    0.535328142282
     23   S      69             3.5305122    0.444634542185

     24   L      70             2.9412494   -0.099967229187    0.155916274999
     24   L      71             0.6834831    0.399512826089    0.607683718598
     24   L      72             0.2222899    0.700115468880    0.391957393099

 H         

     25   S      73             3.4252509    0.154328967295
     25   S      74             0.6239137    0.535328142282
     25   S      75             0.1688554    0.444634542185

 H         

     26   S      76             3.4252509    0.154328967295
     26   S      77             0.6239137    0.535328142282
     26   S      78             0.1688554    0.444634542185

 H         

     27   S      79             3.4252509    0.154328967295
     27   S      80             0.6239137    0.535328142282
     27   S      81             0.1688554    0.444634542185

 TOTAL NUMBER OF BASIS SET SHELLS             =   27
 NUMBER OF CARTESIAN GAUSSIAN BASIS FUNCTIONS =   48
 NUMBER OF ELECTRONS                          =   54
 CHARGE OF MOLECULE                           =    0
 SPIN MULTIPLICITY                            =    1
 NUMBER OF OCCUPIED ORBITALS (ALPHA)          =   27
 NUMBER OF OCCUPIED ORBITALS (BETA )          =   27
 TOTAL NUMBER OF ATOMS                        =   20
 THE NUCLEAR REPULSION ENERGY IS      309.6504321949

     $CONTRL OPTIONS
     ---------------
 SCFTYP=RHF          RUNTYP=SADPOINT     EXETYP=RUN     
 MPLEVL=       0     CITYP =NONE         CCTYP =NONE         VBTYP =NONE    
 DFTTYP=NONE         TDDFT =NONE    
 MULT  =       1     ICHARG=       0     NZVAR =       0     COORD =UNIQUE  
 PP    =NONE         RELWFN=NONE         LOCAL =NONE         NUMGRD=       F
 ISPHER=      -1     NOSYM =       0     MAXIT =      30     UNITS =ANGS    
 PLTORB=       F     MOLPLT=       F     AIMPAC=       F     FRIEND=        
 NPRINT=       7     IREST =       0     GEOM  =INPUT   
 NORMF =       0     NORMP =       0     ITOL  =      20     ICUT  =       9
 INTTYP=BEST         GRDTYP=BEST         QMTTOL= 1.0E-06

     $SYSTEM OPTIONS
     ---------------
  REPLICATED MEMORY=     1000000 WORDS (ON EVERY NODE).
 DISTRIBUTED MEMDDI=           0 MILLION WORDS IN AGGREGATE,
 MEMDDI DISTRIBUTED OVER   1 PROCESSORS IS           0 WORDS/PROCESSOR.
 TOTAL MEMORY REQUESTED ON EACH PROCESSOR=     1000000 WORDS.
 TIMLIM=      525600.00 MINUTES, OR     365.0 DAYS.
 PARALL= F  BALTYP=  DLB     KDIAG=    0  COREFL= F
 MXSEQ2=     300 MXSEQ3=     150  mem10=         0

          ----------------
          PROPERTIES INPUT
          ----------------

     MOMENTS            FIELD           POTENTIAL          DENSITY
 IEMOM =       1   IEFLD =       0   IEPOT =       0   IEDEN =       0
 WHERE =COMASS     WHERE =NUCLEI     WHERE =NUCLEI     WHERE =NUCLEI  
 OUTPUT=BOTH       OUTPUT=BOTH       OUTPUT=BOTH       OUTPUT=BOTH    
 IEMINT=       0   IEFINT=       0                     IEDINT=       0
                                                       MORB  =       0
          EXTRAPOLATION IN EFFECT
          SOSCF IN EFFECT
 ORBITAL PRINTING OPTION: NPREO=     1    48     2     1

     -------------------------------
     INTEGRAL TRANSFORMATION OPTIONS
     -------------------------------
     NWORD  =            0
     CUTOFF = 1.0E-09     MPTRAN =       0
     DIRTRF =       F     AOINTS =DUP     

          ----------------------
          INTEGRAL INPUT OPTIONS
          ----------------------
 NOPK  =       1 NORDER=       0 SCHWRZ=       T

     ------------------------------------------
     THE POINT GROUP IS C1 , NAXIS= 0, ORDER= 1
     ------------------------------------------

     DIMENSIONS OF THE SYMMETRY SUBSPACES ARE
 A   =   48

 ..... DONE SETTING UP THE RUN .....
 STEP CPU TIME =     0.04 TOTAL CPU TIME =          0.0 (      0.0 MIN)
 TOTAL WALL CLOCK TIME=          0.1 SECONDS, CPU UTILIZATION IS    66.67%


          -----------------------------
          STATIONARY POINT LOCATION RUN
          -----------------------------

 OBTAINING INITIAL HESSIAN, HESS=CALC    

     ---------------------------------
     HESSIAN MATRIX CONTROL PARAMETERS
     ---------------------------------
     METHOD=ANALYTIC   NVIB  =       2   VIBSIZ= 0.01000
     RDHESS=       F   PURIFY=       F   PRTIFC=       F
     VIBANL=       F   DECOMP=       F   PROJCT=       F
     SCLFAC= 1.00000   PRTSCN=       F   NPRT  =       0
     PULCOR=       F   NPUN  =       0   REDOVB=       T
     HSSTYP=GENERAL 
 Old integral subroutine is used

     ------------------------------
     CPHF RESPONSE SOLUTION OPTIONS
     ------------------------------
     POLAR  =       F     NWORD  =       0
     CPHF   =AO      

          ********************
          1 ELECTRON INTEGRALS
          ********************
 ...... END OF ONE-ELECTRON INTEGRALS ......
 STEP CPU TIME =     0.02 TOTAL CPU TIME =          0.1 (      0.0 MIN)
 TOTAL WALL CLOCK TIME=          0.1 SECONDS, CPU UTILIZATION IS    66.67%

          -------------
          GUESS OPTIONS
          -------------
          GUESS =HUCKEL            NORB  =       0          NORDER=       0
          MIX   =       F          PRTMO =       F          PUNMO =       F
          TOLZ  = 1.0E-08          TOLE  = 1.0E-05
          SYMDEN=       F          PURIFY=       F

 INITIAL GUESS ORBITALS GENERATED BY HUCKEL   ROUTINE.
 HUCKEL GUESS REQUIRES     39252 WORDS.

 SYMMETRIES FOR INITIAL GUESS ORBITALS FOLLOW.   BOTH SET(S).
    27 ORBITALS ARE OCCUPIED (    7 CORE ORBITALS).
     8=A        9=A       10=A       11=A       12=A       13=A       14=A   
    15=A       16=A       17=A       18=A       19=A       20=A       21=A   
    22=A       23=A       24=A       25=A       26=A       27=A       28=A   
    29=A       30=A       31=A       32=A       33=A       34=A       35=A   
    36=A       37=A   
 ...... END OF INITIAL ORBITAL SELECTION ......
 STEP CPU TIME =     0.02 TOTAL CPU TIME =          0.1 (      0.0 MIN)
 TOTAL WALL CLOCK TIME=          0.1 SECONDS, CPU UTILIZATION IS    72.73%

                    ----------------------
                    AO INTEGRAL TECHNOLOGY
                    ----------------------
     S,P,L SHELL ROTATED AXIS INTEGRALS, REPROGRAMMED BY
        KAZUYA ISHIMURA (IMS) AND JOSE SIERRA (SYNSTAR).
     S,P,D,L SHELL ROTATED AXIS INTEGRALS PROGRAMMED BY
        KAZUYA ISHIMURA (INSTITUTE FOR MOLECULAR SCIENCE).
     S,P,D,F,G SHELL TO TOTAL QUARTET ANGULAR MOMENTUM SUM 5,
        ERIC PROGRAM BY GRAHAM FLETCHER (ELORET AND NASA ADVANCED
        SUPERCOMPUTING DIVISION, AMES RESEARCH CENTER).
     S,P,D,F,G,L SHELL GENERAL RYS QUADRATURE PROGRAMMED BY
        MICHEL DUPUIS (PACIFIC NORTHWEST NATIONAL LABORATORY).

          --------------------
          2 ELECTRON INTEGRALS
          --------------------

 THE -PK- OPTION IS OFF, THE INTEGRALS ARE NOT IN SUPERMATRIX FORM.
 STORING   15000 INTEGRALS/RECORD ON DISK, USING 12 BYTES/INTEGRAL.
 TWO ELECTRON INTEGRAL EVALUATION REQUIRES   89734 WORDS OF MEMORY.
 SCHWARZ INEQUALITY OVERHEAD:      1165 INTEGRALS, T=        0.00
 II,JST,KST,LST =  1  1  1  1 NREC =         1 INTLOC =    1
 II,JST,KST,LST =  2  1  1  1 NREC =         1 INTLOC =    2
 II,JST,KST,LST =  3  1  1  1 NREC =         1 INTLOC =   34
 II,JST,KST,LST =  4  1  1  1 NREC =         1 INTLOC =  140
 II,JST,KST,LST =  5  1  1  1 NREC =         1 INTLOC = 1358
 II,JST,KST,LST =  6  1  1  1 NREC =         1 INTLOC = 1952
 II,JST,KST,LST =  7  1  1  1 NREC =         1 INTLOC = 6840
 II,JST,KST,LST =  8  1  1  1 NREC =         1 INTLOC = 8541
 II,JST,KST,LST =  9  1  1  1 NREC =         2 INTLOC = 5996
 II,JST,KST,LST = 10  1  1  1 NREC =         2 INTLOC = 9829
 II,JST,KST,LST = 11  1  1  1 NREC =         4 INTLOC = 5314
 II,JST,KST,LST = 12  1  1  1 NREC =         4 INTLOC =13922
 II,JST,KST,LST = 13  1  1  1 NREC =         5 INTLOC = 8577
 II,JST,KST,LST = 14  1  1  1 NREC =         6 INTLOC = 4353
 II,JST,KST,LST = 15  1  1  1 NREC =         7 INTLOC = 1347
 II,JST,KST,LST = 16  1  1  1 NREC =         7 INTLOC =14640
 II,JST,KST,LST = 17  1  1  1 NREC =         8 INTLOC =14318
 II,JST,KST,LST = 18  1  1  1 NREC =         9 INTLOC =12772
 II,JST,KST,LST = 19  1  1  1 NREC =        15 INTLOC = 3304
 II,JST,KST,LST = 20  1  1  1 NREC =        16 INTLOC =13148
 II,JST,KST,LST = 21  1  1  1 NREC =        18 INTLOC =10093
 II,JST,KST,LST = 22  1  1  1 NREC =        20 INTLOC = 9122
 II,JST,KST,LST = 23  1  1  1 NREC =        22 INTLOC =10608
 II,JST,KST,LST = 24  1  1  1 NREC =        24 INTLOC = 7139
 II,JST,KST,LST = 25  1  1  1 NREC =        35 INTLOC = 1090
 II,JST,KST,LST = 26  1  1  1 NREC =        38 INTLOC = 3005
 II,JST,KST,LST = 27  1  1  1 NREC =        41 INTLOC = 7895
 SCHWARZ INEQUALITY TEST SKIPPED        7543 INTEGRAL BLOCKS.
 TOTAL NUMBER OF NONZERO TWO-ELECTRON INTEGRALS =              660961
         45 INTEGRAL RECORDS WERE STORED ON DISK FILE  8.
  ...... END OF TWO-ELECTRON INTEGRALS .....
 STEP CPU TIME =     0.20 TOTAL CPU TIME =          0.3 (      0.0 MIN)
 TOTAL WALL CLOCK TIME=          0.3 SECONDS, CPU UTILIZATION IS    87.50%

          --------------------------
                 RHF SCF CALCULATION
          --------------------------

     NUCLEAR ENERGY =       309.6504321949
     MAXIT =   30     NPUNCH=    2
     EXTRAP=T  DAMP=F  SHIFT=F  RSTRCT=F  DIIS=F  DEM=F  SOSCF=T
     DENSITY MATRIX CONV=  1.00E-05
     SOSCF WILL OPTIMIZE     567 ORBITAL ROTATIONS, SOGTOL=   0.250
     MEMORY REQUIRED FOR RHF ITERS=     49068 WORDS.

 ITER EX DEM     TOTAL ENERGY        E CHANGE  DENSITY CHANGE     ORB. GRAD
   1  0  0     -255.9822849752  -255.9822849752   0.300103472   0.000000000
          ---------------START SECOND ORDER SCF---------------
   2  1  0     -256.3258178794    -0.3435329042   0.053852178   0.029679989
   3  2  0     -256.3388570484    -0.0130391690   0.030937872   0.005971984
   4  3  0     -256.3399268669    -0.0010698186   0.003608440   0.000968618
   5  4  0     -256.3399507663    -0.0000238993   0.001233252   0.000441509
   6  5  0     -256.3399539478    -0.0000031815   0.000275030   0.000070160
   7  6  0     -256.3399541276    -0.0000001798   0.000050462   0.000016756
   8  7  0     -256.3399541386    -0.0000000111   0.000011726   0.000003103
   9  8  0     -256.3399541392    -0.0000000005   0.000004517   0.000001025
  10  9  0     -256.3399541392    -0.0000000001   0.000001348   0.000000283

          -----------------
          DENSITY CONVERGED
          -----------------
     TIME TO FORM FOCK OPERATORS=       0.1 SECONDS (       0.0 SEC/ITER)
     TIME TO SOLVE SCF EQUATIONS=       0.0 SECONDS (       0.0 SEC/ITER)

 FINAL RHF ENERGY IS     -256.3399541392 AFTER  10 ITERATIONS

          ------------
          EIGENVECTORS
          ------------

                      1          2          3          4          5
                  -11.0931   -11.0912   -11.0694   -11.0684   -11.0665
                     A          A          A          A          A   
    1  C  1  S   -0.005003  -0.000508  -0.012290  -0.008150   0.991695
    2  C  1  S   -0.005557   0.001132  -0.000318  -0.000216   0.037319
    3  C  1  X    0.001406  -0.000416   0.000047  -0.000001  -0.000152
    4  C  1  Y   -0.003405   0.000576  -0.000056   0.000005   0.000023
    5  C  1  Z    0.001730  -0.000295   0.000178  -0.000019  -0.000356
    6  C  2  S    0.973988  -0.188826   0.001336   0.005954   0.005844
    7  C  2  S    0.033842  -0.013784   0.000260  -0.005541  -0.005605
    8  C  2  X    0.001154  -0.003707   0.000029   0.004075  -0.001483
    9  C  2  Y    0.000803  -0.002830  -0.000040  -0.000032   0.003594
   10  C  2  Z    0.000202   0.001567   0.000052   0.001701  -0.001774
   11  C  3  S    0.189259   0.973857   0.006537   0.000239   0.001591
   12  C  3  S    0.000047   0.037210  -0.005593   0.000092   0.000123
   13  C  3  X    0.002895  -0.002256  -0.003905  -0.000122  -0.000062
   14  C  3  Y    0.002888  -0.001817   0.001624   0.000110   0.000042
   15  C  3  Z   -0.000173   0.001060  -0.000910  -0.000132  -0.000003
   16  C  4  S   -0.002405  -0.005243   0.991786   0.001595   0.012128
   17  C  4  S   -0.001007  -0.005599   0.037322   0.000054   0.000630
   18  C  4  X    0.000778   0.003619  -0.000254   0.000017   0.000105
   19  C  4  Y   -0.000164  -0.001529   0.000052   0.000008  -0.000009
   20  C  4  Z    0.000150   0.000894  -0.000371  -0.000013   0.000151
   21  C  5  S   -0.001091  -0.000899  -0.012171  -0.000448  -0.016548
   22  C  5  S    0.000148   0.000067  -0.005936  -0.000040  -0.006247
   23  C  5  X    0.000034   0.000167  -0.001033   0.000024   0.003921
   24  C  5  Y   -0.000157  -0.000041  -0.003213  -0.000047   0.000967
   25  C  5  Z   -0.000007  -0.000043   0.002415   0.000012   0.000819
   26  H  6  S   -0.000072   0.000017   0.000103   0.000057  -0.007027
   27  H  7  S   -0.000011  -0.000037  -0.000007   0.000058  -0.006944
   28  H  8  S   -0.000040   0.000064  -0.006930  -0.000012  -0.000179
   29  H  9  S   -0.000008  -0.000055  -0.007017  -0.000012  -0.000073
   30  H 10  S    0.000038   0.000044   0.000159   0.000005   0.000200
   31  H 11  S   -0.000087  -0.000068   0.000203  -0.000008   0.000237
   32  B 12  S    0.000482   0.000319   0.000022   0.000019   0.000012
   33  B 12  S   -0.003464  -0.002467  -0.000012   0.000013   0.000048
   34  B 12  X    0.000469  -0.001830  -0.000104   0.000115  -0.000079
   35  B 12  Y    0.002478   0.000248   0.000102   0.000059   0.000053
   36  B 12  Z    0.001823   0.002288  -0.000032   0.000042   0.000038
   37  H 13  S   -0.000069  -0.000161  -0.000062  -0.000050   0.000022
   38  H 14  S    0.000386  -0.000035   0.000046   0.000043  -0.000170
   39  H 15  S    0.000437   0.000155  -0.000079  -0.000106  -0.000054
   40  H 16  S   -0.001147  -0.006506   0.000055  -0.000071  -0.000070
   41  C 17  S   -0.004991   0.000729  -0.001705   0.991893   0.008117
   42  C 17  S   -0.005417   0.001271  -0.000099   0.037880   0.000433
   43  C 17  X   -0.003714   0.000787  -0.000029  -0.000013   0.000026
   44  C 17  Y   -0.000099   0.000085  -0.000026  -0.000140  -0.000024
   45  C 17  Z   -0.001347   0.000277  -0.000014  -0.000086   0.000008
   46  H 18  S   -0.000073   0.000024   0.000010  -0.007004  -0.000058
   47  H 19  S    0.000054  -0.000122  -0.000010  -0.006963  -0.000128
   48  H 20  S   -0.000050  -0.000019   0.000012  -0.006962  -0.000074

                      6          7          8          9         10
                  -11.0570    -7.3038    -1.1287    -0.9941    -0.9507
                     A          A          A          A          A   
    1  C  1  S    0.017396   0.000033  -0.092736   0.028519  -0.147511
    2  C  1  S   -0.004964   0.000056   0.241295  -0.077054   0.422834
    3  C  1  X   -0.003990  -0.000054   0.012740  -0.078360   0.013620
    4  C  1  Y   -0.000866  -0.000130   0.051634   0.018220  -0.014107
    5  C  1  Z   -0.000882  -0.000097  -0.021538  -0.026954   0.006372
    6  C  2  S    0.001082   0.000507  -0.136976  -0.102883  -0.005996
    7  C  2  S    0.000084  -0.003080   0.351949   0.286345   0.021560
    8  C  2  X   -0.000141   0.000448   0.073525  -0.069684  -0.076514
    9  C  2  Y   -0.000001  -0.001823   0.024065   0.040876  -0.143335
   10  C  2  Z   -0.000074  -0.002128  -0.000797  -0.044701   0.045120
   11  C  3  S    0.001277   0.000491  -0.129240  -0.023763   0.132258
   12  C  3  S    0.000093  -0.003428   0.333109   0.067572  -0.376471
   13  C  3  X   -0.000001   0.001165  -0.034307  -0.116005  -0.016862
   14  C  3  Y    0.000143  -0.001406  -0.075161  -0.004627   0.002148
   15  C  3  Z   -0.000143  -0.002489   0.038728  -0.008813  -0.005537
   16  C  4  S    0.013375   0.000049  -0.089696   0.105096   0.081417
   17  C  4  S   -0.005101  -0.000029   0.232951  -0.293251  -0.233839
   18  C  4  X    0.000815   0.000134  -0.055392   0.000798   0.037275
   19  C  4  Y    0.003260  -0.000023  -0.010062   0.042720  -0.067812
   20  C  4  Z   -0.002478  -0.000202   0.004432  -0.027242   0.044588
   21  C  5  S    0.991763   0.000033  -0.079572   0.118983  -0.080124
   22  C  5  S    0.037013   0.000003   0.205009  -0.330873   0.228324
   23  C  5  X    0.000094   0.000180  -0.031201  -0.004224  -0.066600
   24  C  5  Y    0.000008  -0.000240   0.024531  -0.027148  -0.060428
   25  C  5  Z    0.000216  -0.000046  -0.028490   0.024440   0.018309
   26  H  6  S   -0.000036  -0.000116   0.045798  -0.016193   0.121884
   27  H  7  S    0.000008  -0.000042   0.041419  -0.015280   0.119263
   28  H  8  S    0.000036   0.000004   0.039432  -0.071195  -0.065714
   29  H  9  S   -0.000010  -0.000130   0.043759  -0.073888  -0.065447
   30  H 10  S   -0.007013  -0.000212   0.037514  -0.079541   0.060355
   31  H 11  S   -0.006991  -0.000100   0.035245  -0.083065   0.066234
   32  B 12  S    0.000020   0.989877  -0.025845  -0.015874   0.022289
   33  B 12  S   -0.000093   0.042468   0.037378   0.026552  -0.037678
   34  B 12  X   -0.000122   0.000995   0.006442  -0.006093  -0.015674
   35  B 12  Y    0.000116  -0.000573  -0.013100  -0.009073   0.000375
   36  B 12  Z   -0.000022  -0.001319  -0.015704  -0.012913   0.020193
   37  H 13  S    0.000062  -0.007221   0.016125   0.003619  -0.029287
   38  H 14  S    0.000057  -0.007087   0.013379   0.007151  -0.002793
   39  H 15  S   -0.000050  -0.007118   0.010415   0.014547  -0.010341
   40  H 16  S   -0.000128  -0.000266   0.057731   0.023692  -0.110521
   41  C 17  S    0.000576   0.000041  -0.050065  -0.137387  -0.050428
   42  C 17  S   -0.000062   0.000124   0.134189   0.382784   0.142728
   43  C 17  X   -0.000061  -0.000040   0.039968   0.041974  -0.000685
   44  C 17  Y    0.000034  -0.000278  -0.000674   0.000830  -0.019485
   45  C 17  Z   -0.000035  -0.000155   0.014306   0.012439   0.007042
   46  H 18  S   -0.000007  -0.000157   0.025202   0.095323   0.046015
   47  H 19  S   -0.000012  -0.000104   0.024957   0.095466   0.028268
   48  H 20  S   -0.000008  -0.000201   0.023282   0.091044   0.044197

                     11         12         13         14         15
                   -0.8932    -0.7806    -0.7052    -0.6683    -0.6305
                     A          A          A          A          A   
    1  C  1  S    0.078754   0.084254   0.055618  -0.008497   0.008310
    2  C  1  S   -0.230639  -0.262218  -0.179016   0.027918  -0.027108
    3  C  1  X    0.041627   0.139536  -0.023223  -0.097985  -0.128882
    4  C  1  Y   -0.019160   0.047596   0.211330   0.042526  -0.112131
    5  C  1  Z    0.017844   0.055175  -0.092431   0.157731  -0.034430
    6  C  2  S    0.056708  -0.013314  -0.110899   0.008891  -0.067481
    7  C  2  S   -0.165415   0.035065   0.362617  -0.024216   0.240178
    8  C  2  X   -0.167585   0.029046   0.039957  -0.088705  -0.234035
    9  C  2  Y   -0.008039   0.173702  -0.045110   0.025735   0.035554
   10  C  2  Z   -0.051987  -0.040627   0.030504   0.190853  -0.082934
   11  C  3  S    0.055465  -0.029895   0.087025   0.037820   0.033372
   12  C  3  S   -0.156669   0.087845  -0.292754  -0.120966  -0.113258
   13  C  3  X    0.108960  -0.174825  -0.080735   0.023494  -0.170182
   14  C  3  Y    0.029536   0.021918  -0.282217   0.102417   0.143395
   15  C  3  Z   -0.017696   0.011235   0.156964   0.177834  -0.130681
   16  C  4  S   -0.104516   0.099504  -0.030467  -0.017674  -0.014042
   17  C  4  S    0.308556  -0.309463   0.097126   0.057741   0.045526
   18  C  4  X    0.058105  -0.054416   0.038294   0.069834   0.297525
   19  C  4  Y   -0.028780  -0.093257  -0.105373   0.124636  -0.011769
   20  C  4  Z    0.017757   0.107182   0.055048   0.137132  -0.060513
   21  C  5  S   -0.063093  -0.130723   0.002856   0.015871  -0.003021
   22  C  5  S    0.185336   0.406644  -0.008588  -0.051606   0.006166
   23  C  5  X    0.084465   0.065809   0.046588  -0.022539   0.206372
   24  C  5  Y    0.043283  -0.057881   0.118603   0.104189  -0.130384
   25  C  5  Z   -0.013806   0.102822  -0.056957   0.120601   0.015992
   26  H  6  S   -0.066861  -0.138798  -0.133174  -0.085869   0.078490
   27  H  7  S   -0.068239  -0.111259  -0.146827   0.131230   0.037278
   28  H  8  S    0.103778  -0.131645   0.020700   0.155587   0.126346
   29  H  9  S    0.102354  -0.157708   0.035213  -0.068178   0.164653
   30  H 10  S    0.057086   0.188094  -0.016823   0.087423   0.004702
   31  H 11  S    0.066216   0.178963  -0.039939  -0.103327   0.175062
   32  B 12  S    0.020464  -0.035059   0.016939  -0.149081  -0.017665
   33  B 12  S   -0.036542   0.071459  -0.035182   0.339370   0.041467
   34  B 12  X   -0.007552   0.002968  -0.026585   0.022997  -0.047019
   35  B 12  Y    0.012646  -0.007593  -0.043618  -0.018694   0.008745
   36  B 12  Z    0.013369  -0.022237   0.018659   0.000702  -0.019501
   37  H 13  S   -0.013804   0.027406  -0.067427   0.184178  -0.006817
   38  H 14  S   -0.014414   0.023096   0.008747   0.182295   0.006443
   39  H 15  S   -0.006507   0.032438  -0.022446   0.147674   0.054675
   40  H 16  S   -0.038748   0.047503  -0.319474  -0.074126   0.095726
   41  C 17  S   -0.151636   0.002691   0.024550   0.002184   0.030984
   42  C 17  S    0.440711  -0.007932  -0.075454  -0.007129  -0.102985
   43  C 17  X   -0.048974   0.012690   0.112854  -0.043091   0.268363
   44  C 17  Y   -0.003768   0.050457  -0.023127   0.026178   0.034711
   45  C 17  Z   -0.023089  -0.007731   0.060590   0.103487   0.110658
   46  H 18  S    0.141713  -0.025964  -0.051938  -0.066142  -0.133181
   47  H 19  S    0.137623   0.026422  -0.081865  -0.010824  -0.092347
   48  H 20  S    0.137299  -0.017314  -0.048276   0.071024  -0.119260

                     16         17         18         19         20
                   -0.5983    -0.5670    -0.5603    -0.5353    -0.5055
                     A          A          A          A          A   
    1  C  1  S   -0.005628  -0.021257   0.009980  -0.003543   0.011675
    2  C  1  S    0.019646   0.073867  -0.032549   0.012092  -0.051470
    3  C  1  X    0.128596   0.007648  -0.032453   0.047602  -0.129370
    4  C  1  Y   -0.100977  -0.037755   0.149894  -0.106369  -0.190353
    5  C  1  Z   -0.153679   0.249835   0.147400  -0.252209   0.126995
    6  C  2  S    0.031119   0.002303  -0.007185  -0.004240   0.001417
    7  C  2  S   -0.114498  -0.015954   0.033352   0.013599  -0.028619
    8  C  2  X    0.066803   0.057107  -0.072027  -0.021084   0.256686
    9  C  2  Y    0.087876   0.196944  -0.062575   0.022919   0.228909
   10  C  2  Z    0.038569  -0.020219   0.126483   0.014583   0.002204
   11  C  3  S    0.022667   0.008214  -0.015916  -0.010703  -0.033470
   12  C  3  S   -0.082802  -0.040424   0.061181   0.039792   0.109105
   13  C  3  X   -0.040573  -0.110267   0.083239   0.002163  -0.186968
   14  C  3  Y   -0.051699  -0.109623   0.051233   0.031362  -0.210727
   15  C  3  Z    0.098652   0.009121  -0.080068   0.051155   0.174571
   16  C  4  S   -0.002139  -0.016071   0.007857  -0.002135   0.004135
   17  C  4  S    0.008281   0.054666  -0.027215   0.009792  -0.020208
   18  C  4  X   -0.011408   0.077171  -0.075495  -0.018338   0.123943
   19  C  4  Y   -0.171453  -0.027819  -0.124492   0.137490   0.125202
   20  C  4  Z   -0.144163  -0.080419  -0.228042   0.273064  -0.012563
   21  C  5  S    0.006956   0.013964  -0.010204  -0.001499   0.024291
   22  C  5  S   -0.021947  -0.047679   0.035561   0.006013  -0.094509
   23  C  5  X    0.008631  -0.095388  -0.006567   0.040787   0.194217
   24  C  5  Y   -0.144490   0.024263  -0.061778   0.027353  -0.206246
   25  C  5  Z   -0.280500   0.036913  -0.021161  -0.058427   0.057088
   26  H  6  S    0.148263  -0.096203  -0.201200   0.219571   0.043141
   27  H  7  S   -0.118549   0.207549   0.073500  -0.175256   0.182915
   28  H  8  S   -0.139234   0.012172  -0.210700   0.181254   0.128338
   29  H  9  S    0.143610   0.117580   0.161437  -0.253401   0.015709
   30  H 10  S   -0.247099   0.004932  -0.018306  -0.041932  -0.025794
   31  H 11  S    0.129201  -0.093180   0.057189   0.014895   0.212702
   32  B 12  S   -0.122161   0.051709   0.024215   0.053536   0.024295
   33  B 12  S    0.285289  -0.122524  -0.054489  -0.128014  -0.061059
   34  B 12  X   -0.015000  -0.054317  -0.042737   0.004896   0.040070
   35  B 12  Y    0.027191  -0.038473  -0.034516   0.004791  -0.048673
   36  B 12  Z    0.002985  -0.022409   0.003861  -0.054693  -0.035148
   37  H 13  S    0.143103  -0.138454  -0.083131  -0.049887  -0.040339
   38  H 14  S    0.131184  -0.056869  -0.002236  -0.127463  -0.046372
   39  H 15  S    0.174152  -0.030371  -0.016077  -0.055160  -0.091673
   40  H 16  S   -0.109278  -0.082616   0.095519   0.011612  -0.194772
   41  C 17  S   -0.003761  -0.003795  -0.001373  -0.002160   0.004545
   42  C 17  S    0.011985   0.012958   0.005094   0.007638  -0.017486
   43  C 17  X   -0.114380  -0.036385  -0.134839  -0.117242  -0.235219
   44  C 17  Y    0.116608   0.427579  -0.068612   0.184348  -0.208795
   45  C 17  Z   -0.004865  -0.044417   0.394426   0.310481   0.000721
   46  H 18  S   -0.051330  -0.242748  -0.184023  -0.300257   0.155113
   47  H 19  S    0.109559   0.341363  -0.173604   0.044826  -0.140623
   48  H 20  S    0.048960  -0.057024   0.330767   0.239211   0.172147

                     21         22         23         24         25
                   -0.4700    -0.4658    -0.4607    -0.4477    -0.3955
                     A          A          A          A          A   
    1  C  1  S    0.030079   0.010243  -0.013452  -0.000283   0.007717
    2  C  1  S   -0.117100  -0.043800   0.057205   0.007224  -0.030006
    3  C  1  X   -0.174150  -0.009605   0.160401   0.414588   0.028326
    4  C  1  Y   -0.159002  -0.212957   0.249595  -0.155802  -0.052116
    5  C  1  Z    0.002234  -0.195744  -0.150635   0.163266   0.007278
    6  C  2  S   -0.005740   0.011961  -0.026245   0.002253   0.012591
    7  C  2  S    0.027471  -0.054078   0.108852  -0.013235  -0.042652
    8  C  2  X   -0.186284   0.078848   0.136681  -0.223434   0.021026
    9  C  2  Y   -0.038759   0.077728  -0.171975   0.250855   0.037680
   10  C  2  Z   -0.059874  -0.132839   0.101018  -0.183646  -0.036460
   11  C  3  S   -0.025910  -0.001910   0.009808   0.004965  -0.014278
   12  C  3  S    0.116634   0.000959  -0.039981  -0.014686   0.047804
   13  C  3  X    0.382957  -0.084171   0.079185   0.020351   0.042790
   14  C  3  Y   -0.181150  -0.133264  -0.003864  -0.080932  -0.071974
   15  C  3  Z    0.139037  -0.071154  -0.026856   0.079464  -0.188971
   16  C  4  S   -0.007053   0.001587   0.031199  -0.011165  -0.008715
   17  C  4  S    0.028452  -0.008596  -0.128600   0.040030   0.035763
   18  C  4  X   -0.368587   0.032166   0.173354  -0.030750  -0.042617
   19  C  4  Y    0.151674  -0.092445   0.359499   0.164764   0.075211
   20  C  4  Z   -0.129284  -0.181549  -0.237568  -0.053882   0.122950
   21  C  5  S    0.008411   0.006973   0.010421  -0.010329   0.000796
   22  C  5  S   -0.039554  -0.030296  -0.045941   0.044802  -0.001661
   23  C  5  X    0.191308  -0.027051  -0.130378  -0.386001   0.016663
   24  C  5  Y   -0.139271   0.220350  -0.337312  -0.123851  -0.016684
   25  C  5  Z    0.132048   0.356589   0.240790  -0.027077  -0.079469
   26  H  6  S    0.071675   0.282655  -0.069990  -0.013303   0.025495
   27  H  7  S    0.075213  -0.111320  -0.248928  -0.034127   0.011399
   28  H  8  S   -0.166308  -0.124397   0.178501   0.089344   0.094328
   29  H  9  S   -0.084391   0.203608   0.111733  -0.000773  -0.156296
   30  H 10  S    0.089572   0.385445   0.110522  -0.077115  -0.076097
   31  H 11  S    0.187598  -0.270838   0.124446  -0.120851   0.042103
   32  B 12  S   -0.006221  -0.028299  -0.004407   0.000042  -0.018106
   33  B 12  S    0.016637   0.067951   0.009463   0.001650   0.045869
   34  B 12  X    0.035397  -0.060556   0.013331  -0.027240  -0.274870
   35  B 12  Y   -0.013857   0.014542  -0.026267   0.015958  -0.268463
   36  B 12  Z    0.049102   0.037352   0.050771  -0.037079   0.254459
   37  H 13  S    0.042585  -0.020426   0.010147  -0.008933  -0.398982
   38  H 14  S    0.046435   0.069973   0.061924  -0.046442   0.440418
   39  H 15  S   -0.028943   0.093539  -0.024809   0.034666   0.073878
   40  H 16  S   -0.208061  -0.055196  -0.012935  -0.147335   0.093211
   41  C 17  S   -0.010673   0.004826   0.003084  -0.017182   0.005134
   42  C 17  S    0.041467  -0.018687  -0.011648   0.066702  -0.020162
   43  C 17  X    0.195927  -0.086776  -0.090502   0.228272  -0.020344
   44  C 17  Y    0.124316  -0.036033   0.092717  -0.146252  -0.028207
   45  C 17  Z    0.034174   0.083847  -0.052158   0.147322  -0.020664
   46  H 18  S   -0.109846  -0.024958  -0.035053   0.021534   0.034035
   47  H 19  S    0.062971  -0.057998   0.115967  -0.224786  -0.021634
   48  H 20  S   -0.105198   0.117795  -0.002206   0.007482   0.006320

                     26         27         28         29         30
                   -0.3923    -0.3267     0.2663     0.4712     0.5308
                     A          A          A          A          A   
    1  C  1  S   -0.004790   0.002017   0.009053  -0.007972  -0.025313
    2  C  1  S    0.017396  -0.007543  -0.044258   0.041155   0.135687
    3  C  1  X   -0.065147   0.013036   0.011412   0.008598  -0.411144
    4  C  1  Y    0.065714  -0.040955  -0.043671   0.036307   0.454676
    5  C  1  Z    0.018168  -0.110156   0.066603   0.097942  -0.264633
    6  C  2  S    0.001137   0.003158  -0.036975  -0.020913   0.032821
    7  C  2  S   -0.002594  -0.003823   0.192627   0.075780  -0.181631
    8  C  2  X    0.072837  -0.161892  -0.179127   0.091133  -0.225166
    9  C  2  Y   -0.075404   0.171192   0.359646   0.219923   0.469977
   10  C  2  Z    0.005846   0.453986   0.640077   0.297998  -0.259269
   11  C  3  S   -0.004348  -0.007558   0.035704  -0.032701   0.038030
   12  C  3  S    0.016178   0.033617  -0.190201   0.139182  -0.213907
   13  C  3  X    0.081737   0.037600   0.077964  -0.117371  -0.358830
   14  C  3  Y   -0.086692   0.296945  -0.401786   0.097108   0.299689
   15  C  3  Z   -0.032217   0.355929  -0.605159   0.438172  -0.152878
   16  C  4  S   -0.006523  -0.004515  -0.007956  -0.005578  -0.009859
   17  C  4  S    0.024790   0.019292   0.037980   0.027347   0.057106
   18  C  4  X   -0.065044  -0.030933  -0.070861   0.017787  -0.367133
   19  C  4  Y    0.094442  -0.019870  -0.000415   0.030618   0.477163
   20  C  4  Z    0.021238  -0.093096  -0.046766   0.120532  -0.279534
   21  C  5  S    0.000414  -0.000325  -0.002523   0.013603  -0.045873
   22  C  5  S   -0.004564   0.001441   0.012421  -0.073316   0.237090
   23  C  5  X    0.044499  -0.007159   0.019112   0.018800  -0.192015
   24  C  5  Y   -0.039172   0.021454   0.020884   0.011546   0.285548
   25  C  5  Z    0.036605   0.048225  -0.006297   0.104131  -0.235161
   26  H  6  S   -0.063940   0.154422   0.161954   0.121255   0.070282
   27  H  7  S    0.036235  -0.142722  -0.121508  -0.107620   0.071438
   28  H  8  S    0.041901  -0.123510   0.115031  -0.127586   0.004049
   29  H  9  S   -0.082199   0.117437  -0.156784   0.152083   0.043632
   30  H 10  S    0.006978   0.057829  -0.001527  -0.068364   0.043029
   31  H 11  S    0.053970  -0.028417  -0.006699   0.062893   0.234678
   32  B 12  S   -0.012512   0.024099  -0.002369   0.096012   0.010075
   33  B 12  S    0.031388  -0.033293   0.014572  -0.405300  -0.042064
   34  B 12  X   -0.366352  -0.103532   0.009109  -0.118545  -0.047925
   35  B 12  Y    0.228907  -0.245214   0.051085   0.620115   0.116178
   36  B 12  Z   -0.206234  -0.205779   0.050165   0.732885   0.025341
   37  H 13  S   -0.164918  -0.296415   0.269090  -0.067115   0.010864
   38  H 14  S   -0.282433  -0.078263  -0.170914   0.026534   0.075273
   39  H 15  S    0.530430  -0.044328  -0.080514   0.039389  -0.087698
   40  H 16  S   -0.034580   0.021166   0.078844   0.195324  -0.273688
   41  C 17  S    0.011822   0.002252   0.011541  -0.028266   0.025606
   42  C 17  S   -0.044614  -0.008482  -0.057045   0.157560  -0.147283
   43  C 17  X   -0.044104   0.027872  -0.092816   0.123756  -0.137070
   44  C 17  Y   -0.039424  -0.037613   0.025780   0.024771   0.173547
   45  C 17  Z   -0.042332  -0.102432   0.007261   0.102466  -0.133103
   46  H 18  S    0.053595   0.140742   0.184417   0.048380   0.121680
   47  H 19  S   -0.006887   0.006530  -0.019983  -0.027987  -0.221612
   48  H 20  S   -0.010140  -0.136676  -0.135700  -0.078953   0.134923

                     31         32         33         34         35
                    0.5756     0.5925     0.6085     0.6400     0.6740
                     A          A          A          A          A   
    1  C  1  S   -0.066221   0.014233  -0.043459  -0.040484   0.052774
    2  C  1  S    0.357289  -0.096745   0.271852   0.250933  -0.323516
    3  C  1  X    0.455003  -0.093453   0.050892  -0.496183   0.176177
    4  C  1  Y    0.382167   0.278266  -0.136407   0.231796  -0.099974
    5  C  1  Z    0.041800   0.305856   0.360563   0.116497   0.078530
    6  C  2  S    0.058665   0.069541  -0.095853   0.130951  -0.008667
    7  C  2  S   -0.317011  -0.414181   0.591010  -0.802032   0.032068
    8  C  2  X    0.285406   0.189851  -0.270960  -0.147713  -0.030403
    9  C  2  Y    0.251114  -0.041065  -0.040027  -0.024432  -0.192753
   10  C  2  Z   -0.009917  -0.039650  -0.175311   0.067796   0.122035
   11  C  3  S   -0.045607   0.057423  -0.024364  -0.159643  -0.033876
   12  C  3  S    0.255455  -0.344559   0.165234   1.006828   0.224780
   13  C  3  X    0.404903  -0.101225   0.112366  -0.107663  -0.167944
   14  C  3  Y    0.058294  -0.280967   0.262064  -0.007084  -0.010868
   15  C  3  Z   -0.096606  -0.004897  -0.208598  -0.180914  -0.070814
   16  C  4  S    0.063220   0.003724  -0.048768   0.005771   0.076367
   17  C  4  S   -0.343529  -0.045305   0.308895  -0.024075  -0.453695
   18  C  4  X    0.446899  -0.216962   0.213009   0.283606   0.037051
   19  C  4  Y    0.178075   0.076757   0.240542  -0.368979   0.464059
   20  C  4  Z   -0.154354   0.379582   0.269148  -0.012551  -0.184249
   21  C  5  S    0.020256   0.045461  -0.036517  -0.025992  -0.051909
   22  C  5  S   -0.113114  -0.271606   0.239260   0.161008   0.295033
   23  C  5  X    0.583179  -0.263801   0.141153  -0.249418   0.056684
   24  C  5  Y    0.424576   0.274814   0.149425  -0.199968   0.507121
   25  C  5  Z   -0.086486   0.423834   0.400128   0.131523  -0.279329
   26  H  6  S    0.170069   0.466640   0.031627   0.113600   0.136294
   27  H  7  S    0.133572  -0.198633  -0.443833  -0.424615   0.166956
   28  H  8  S   -0.167997  -0.079665  -0.580599   0.133608  -0.010528
   29  H  9  S   -0.106369   0.468311   0.086576  -0.233040   0.180933
   30  H 10  S   -0.031489  -0.392733  -0.567218  -0.127139  -0.036502
   31  H 11  S    0.015028   0.622223  -0.001560  -0.052603   0.139942
   32  B 12  S   -0.001831  -0.018223  -0.017258  -0.004529   0.005320
   33  B 12  S    0.004693   0.072774   0.096809   0.024358  -0.026250
   34  B 12  X    0.010849   0.120500  -0.057415   0.118062   0.094688
   35  B 12  Y   -0.053664  -0.201331   0.009304   0.089829   0.054486
   36  B 12  Z   -0.045068  -0.162041   0.053599  -0.038605   0.011140
   37  H 13  S    0.021847  -0.000654   0.015742  -0.181287  -0.087498
   38  H 14  S   -0.012494  -0.030316  -0.061945   0.108671   0.033642
   39  H 15  S    0.029101   0.105804  -0.080646   0.037421   0.065510
   40  H 16  S   -0.231011   0.378612  -0.397842  -0.644178  -0.185686
   41  C 17  S   -0.049482  -0.020047   0.043058  -0.033872  -0.002645
   42  C 17  S    0.282741   0.109061  -0.241237   0.194896   0.015575
   43  C 17  X    0.357056   0.329017  -0.465985   0.150022  -0.124331
   44  C 17  Y    0.251122  -0.007519  -0.004912  -0.074937  -0.713954
   45  C 17  Z    0.074418   0.108202  -0.298328   0.303508   0.317713
   46  H 18  S    0.139912   0.014076  -0.124946   0.065759  -0.320467
   47  H 19  S   -0.283439   0.041213  -0.082437   0.148367   0.734388
   48  H 20  S    0.103932   0.093402   0.041938  -0.235364  -0.439121

                     36         37         38         39         40
                    0.6995     0.7099     0.7216     0.7277     0.7457
                     A          A          A          A          A   
    1  C  1  S   -0.024365  -0.118612  -0.130949   0.006925   0.056936
    2  C  1  S    0.150237   0.742981   0.809755  -0.067585  -0.343203
    3  C  1  X    0.111589  -0.059430   0.112495   0.411362  -0.347694
    4  C  1  Y   -0.132940  -0.143607  -0.121892   0.401889  -0.057350
    5  C  1  Z   -0.309491  -0.129436  -0.151107   0.278062   0.171212
    6  C  2  S    0.002452   0.074542   0.059648  -0.023417  -0.005948
    7  C  2  S   -0.014632  -0.473809  -0.364827   0.141329   0.043470
    8  C  2  X   -0.046369   0.172695  -0.101331  -0.115325   0.239150
    9  C  2  Y   -0.063605   0.096115   0.099568  -0.049441  -0.061800
   10  C  2  Z   -0.114108   0.046986   0.077771  -0.167969  -0.102972
   11  C  3  S   -0.010488   0.075776  -0.018394   0.044738   0.049995
   12  C  3  S    0.071193  -0.468514   0.124106  -0.267009  -0.338295
   13  C  3  X   -0.005029  -0.424116  -0.142926  -0.232268   0.108287
   14  C  3  Y   -0.006462  -0.157769  -0.071799   0.153427  -0.185262
   15  C  3  Z   -0.055085   0.021112  -0.092492   0.018213   0.246714
   16  C  4  S    0.019616  -0.123291   0.033455  -0.142617   0.017887
   17  C  4  S   -0.125514   0.770101  -0.226543   0.879014  -0.097248
   18  C  4  X   -0.061814  -0.085021  -0.308158  -0.102043   0.196378
   19  C  4  Y    0.127893   0.345292  -0.072338  -0.256538   0.128468
   20  C  4  Z    0.378757  -0.198346   0.217776  -0.242603  -0.420265
   21  C  5  S    0.015332  -0.032855   0.087774   0.139434  -0.131364
   22  C  5  S   -0.092330   0.234491  -0.538122  -0.856098   0.817158
   23  C  5  X    0.007565   0.393302   0.196557   0.116352  -0.086873
   24  C  5  Y   -0.004846  -0.140052   0.074319  -0.075270   0.092046
   25  C  5  Z    0.075259   0.192962   0.007405   0.110827   0.010998
   26  H  6  S   -0.376383  -0.490245  -0.498151   0.463552   0.217704
   27  H  7  S    0.205273  -0.293390  -0.223794   0.078602  -0.107453
   28  H  8  S   -0.159262  -0.420589   0.209523  -0.090766   0.054215
   29  H  9  S    0.415056  -0.341706   0.350733  -0.605824  -0.295370
   30  H 10  S   -0.031967  -0.239982   0.202392   0.287868  -0.376169
   31  H 11  S    0.049570  -0.348543   0.194921   0.293037  -0.242824
   32  B 12  S    0.003362  -0.025606  -0.016817   0.007386  -0.020895
   33  B 12  S   -0.019680   0.119624   0.085963  -0.041766   0.099623
   34  B 12  X    0.008312   0.105907  -0.004369   0.042274   0.033178
   35  B 12  Y   -0.048574  -0.002129   0.024267   0.172758  -0.080443
   36  B 12  Z   -0.037906  -0.091149  -0.038637  -0.174569  -0.013633
   37  H 13  S    0.023872  -0.083650  -0.059685  -0.095294  -0.032823
   38  H 14  S    0.029890   0.042731   0.006818   0.228248  -0.060077
   39  H 15  S    0.011991  -0.032617  -0.037072  -0.066626   0.029111
   40  H 16  S   -0.060064   0.301311  -0.062477   0.023128   0.435862
   41  C 17  S    0.012003   0.005922  -0.157666  -0.019584  -0.140628
   42  C 17  S   -0.074667  -0.055353   1.007829   0.132178   0.910009
   43  C 17  X   -0.367948   0.356557  -0.207335  -0.383181  -0.335773
   44  C 17  Y    0.430472  -0.203433  -0.184391  -0.077764   0.214912
   45  C 17  Z    0.765236   0.240814  -0.278093   0.220302   0.110663
   46  H 18  S    0.802583   0.070357  -0.703030  -0.004647  -0.195181
   47  H 19  S   -0.072169   0.327459  -0.436428   0.028019  -0.573007
   48  H 20  S   -0.668258   0.053920  -0.391677  -0.439369  -0.615613

                     41         42         43         44         45
                    0.7563     0.7865     0.8188     0.8278     0.8567
                     A          A          A          A          A   
    1  C  1  S   -0.084602  -0.043302  -0.032876  -0.062322  -0.033582
    2  C  1  S    0.544486   0.289581   0.209734   0.391863   0.213427
    3  C  1  X    0.002829  -0.249789   0.043437  -0.285056   0.076925
    4  C  1  Y   -0.187820  -0.468821  -0.131319   0.384526   0.184464
    5  C  1  Z    0.597822   0.166446  -0.443066   0.136224  -0.297920
    6  C  2  S   -0.030211  -0.023459   0.002200   0.004784  -0.023064
    7  C  2  S    0.189043   0.149555   0.006530  -0.004253   0.137219
    8  C  2  X   -0.050076   0.074859   0.012993  -0.047829  -0.429873
    9  C  2  Y   -0.139548  -0.058757   0.209325   0.544648   0.354991
   10  C  2  Z   -0.166665   0.019862  -0.115942  -0.431137  -0.160045
   11  C  3  S    0.012984   0.004513  -0.003896   0.029015   0.013384
   12  C  3  S   -0.086833  -0.033529   0.008873  -0.227920  -0.093049
   13  C  3  X   -0.061742   0.131535   0.200288   0.411745   0.243720
   14  C  3  Y    0.100658  -0.099166   0.076887  -0.085754  -0.200579
   15  C  3  Z    0.150636   0.052662   0.146186   0.192501   0.126638
   16  C  4  S    0.090165  -0.033300  -0.000878   0.011805   0.029434
   17  C  4  S   -0.581768   0.223501   0.009156  -0.074208  -0.188739
   18  C  4  X   -0.462662   0.463546   0.127492   0.184245   0.056183
   19  C  4  Y   -0.205380   0.160577  -0.401046  -0.004018  -0.208952
   20  C  4  Z   -0.395799  -0.117646  -0.373776   0.251495  -0.101635
   21  C  5  S   -0.000161   0.082195   0.013419   0.021277  -0.009871
   22  C  5  S    0.003162  -0.542059  -0.085866  -0.134493   0.074182
   23  C  5  X    0.375212  -0.472481  -0.255414   0.067220   0.090719
   24  C  5  Y    0.233207   0.398451   0.447359  -0.308444   0.053344
   25  C  5  Z   -0.080282  -0.447905   0.549063  -0.292027   0.265805
   26  H  6  S   -0.010653  -0.345444  -0.402996   0.135226  -0.123615
   27  H  7  S   -0.704606  -0.448280   0.223514  -0.282657   0.187247
   28  H  8  S    0.757767  -0.373899   0.285667  -0.192821   0.216121
   29  H  9  S    0.069269  -0.318165  -0.402199   0.135675  -0.068512
   30  H 10  S   -0.020791   0.556021  -0.464797   0.361833  -0.273078
   31  H 11  S   -0.054625   0.658897   0.550920  -0.221915   0.005984
   32  B 12  S    0.018841  -0.005665  -0.022820   0.039339   0.026881
   33  B 12  S   -0.101521   0.033646   0.135145  -0.234455  -0.151333
   34  B 12  X   -0.049637   0.266583  -0.515000  -0.302798   0.939084
   35  B 12  Y   -0.049050  -0.044580  -0.137757  -0.448039  -0.044538
   36  B 12  Z    0.031152   0.076844   0.166871   0.216716   0.182336
   37  H 13  S    0.056072  -0.166785   0.354903   0.531017  -0.554823
   38  H 14  S    0.027202  -0.093376  -0.251419  -0.278585  -0.034646
   39  H 15  S    0.032849   0.216617  -0.349060   0.117969   0.781296
   40  H 16  S    0.042917   0.124373   0.038300   0.271614   0.243855
   41  C 17  S    0.069202   0.012668   0.017994   0.017646   0.050060
   42  C 17  S   -0.443345  -0.081225  -0.117104  -0.109392  -0.321548
   43  C 17  X   -0.053466   0.031171  -0.013281  -0.199446  -0.241539
   44  C 17  Y    0.176770   0.153041  -0.198309  -0.407302  -0.114005
   45  C 17  Z    0.154001   0.003576   0.086064   0.175358  -0.107106
   46  H 18  S    0.379838   0.141183  -0.019731  -0.120788  -0.006709
   47  H 19  S    0.096363  -0.083127   0.232757   0.355173   0.095909
   48  H 20  S    0.091936   0.078425  -0.046244  -0.225913   0.045754

                     46         47         48
                    0.8734     0.8922     0.9839
                     A          A          A   
    1  C  1  S   -0.027452  -0.015047   0.010333
    2  C  1  S    0.184744   0.091705  -0.061644
    3  C  1  X   -0.120204  -0.023107  -0.193670
    4  C  1  Y   -0.015268   0.178060  -0.184597
    5  C  1  Z   -0.057250   0.051414   0.034675
    6  C  2  S   -0.019029   0.015730  -0.089723
    7  C  2  S    0.112781  -0.095720   0.688536
    8  C  2  X   -0.161453  -0.194978   0.910588
    9  C  2  Y    0.240389   0.048560   0.511648
   10  C  2  Z   -0.055134  -0.185880  -0.041173
   11  C  3  S    0.010852   0.012304   0.099115
   12  C  3  S   -0.086590  -0.074725  -0.735366
   13  C  3  X    0.365808   0.197205   0.538544
   14  C  3  Y   -0.340037  -0.276052   0.762614
   15  C  3  Z    0.190451   0.100729  -0.433538
   16  C  4  S    0.044296   0.032621  -0.010381
   17  C  4  S   -0.287943  -0.216605   0.061810
   18  C  4  X    0.227303   0.075938  -0.256190
   19  C  4  Y   -0.006869   0.013502  -0.173294
   20  C  4  Z    0.076396   0.087658   0.096454
   21  C  5  S   -0.016329   0.006217  -0.000317
   22  C  5  S    0.102475  -0.042627   0.002658
   23  C  5  X   -0.048028   0.054791  -0.125103
   24  C  5  Y    0.083431  -0.041185  -0.122020
   25  C  5  Z   -0.005042  -0.124104   0.063980
   26  H  6  S   -0.106959   0.083568  -0.062077
   27  H  7  S   -0.118869  -0.022972  -0.093100
   28  H  8  S   -0.012841   0.049674   0.144239
   29  H  9  S    0.081300   0.106821   0.074094
   30  H 10  S   -0.066599   0.130366  -0.019979
   31  H 11  S    0.032927  -0.056293  -0.005577
   32  B 12  S    0.086596  -0.247331  -0.031852
   33  B 12  S   -0.510070   1.452014   0.192633
   34  B 12  X   -0.174361  -0.022226   0.282070
   35  B 12  Y    0.645779   0.398487   0.220508
   36  B 12  Z   -0.766627   0.047119  -0.118282
   37  H 13  S    0.032120  -0.799000  -0.353152
   38  H 14  S    1.059943  -0.497469   0.100004
   39  H 15  S   -0.319522  -0.834636  -0.010285
   40  H 16  S    0.300848   0.247511  -0.310689
   41  C 17  S    0.029284   0.032262  -0.035890
   42  C 17  S   -0.191080  -0.215079   0.238722
   43  C 17  X   -0.081415  -0.072998   0.154290
   44  C 17  Y   -0.092225  -0.028597  -0.211184
   45  C 17  Z   -0.050818   0.037288   0.227256
   46  H 18  S   -0.007119   0.071288  -0.071474
   47  H 19  S    0.101112   0.124354   0.152411
   48  H 20  S    0.054533   0.030345  -0.134278
 ...... END OF RHF CALCULATION ......
 STEP CPU TIME =     0.13 TOTAL CPU TIME =          0.4 (      0.0 MIN)
 TOTAL WALL CLOCK TIME=          0.5 SECONDS, CPU UTILIZATION IS    89.13%

     ----------------------------------------------------------------
     PROPERTY VALUES FOR THE RHF   SELF-CONSISTENT FIELD WAVEFUNCTION
     ----------------------------------------------------------------

          -----------------
          ENERGY COMPONENTS
          -----------------

         WAVEFUNCTION NORMALIZATION =       1.0000000000

                ONE ELECTRON ENERGY =    -959.5291305187
                TWO ELECTRON ENERGY =     393.5387441846
           NUCLEAR REPULSION ENERGY =     309.6504321949
                                      ------------------
                       TOTAL ENERGY =    -256.3399541392

 ELECTRON-ELECTRON POTENTIAL ENERGY =     393.5387441846
  NUCLEUS-ELECTRON POTENTIAL ENERGY =   -1214.0081839840
   NUCLEUS-NUCLEUS POTENTIAL ENERGY =     309.6504321949
                                      ------------------
             TOTAL POTENTIAL ENERGY =    -510.8190076045
               TOTAL KINETIC ENERGY =     254.4790534653
                 VIRIAL RATIO (V/T) =       2.0073125888

          ---------------------------------------
          MULLIKEN AND LOWDIN POPULATION ANALYSES
          ---------------------------------------

     ATOMIC MULLIKEN POPULATION IN EACH MOLECULAR ORBITAL

                      1          2          3          4          5

                  2.000000   2.000000   2.000000   2.000000   2.000000

    1            -0.000676  -0.000016   0.000306   0.000135   2.002391
    2             1.930207   0.071389   0.000005  -0.000759  -0.000729
    3             0.071503   1.930412  -0.000729   0.000001   0.000005
    4            -0.000026  -0.000656   2.002766   0.000005   0.000301
    5             0.000002   0.000001  -0.000401   0.000000  -0.000148
    6            -0.000001  -0.000000  -0.000000   0.000000  -0.000982
    7            -0.000000   0.000000   0.000000  -0.000000  -0.000977
    8            -0.000000   0.000001  -0.000975  -0.000000  -0.000000
    9            -0.000000  -0.000001  -0.000981  -0.000000  -0.000000
   10             0.000000   0.000000   0.000002  -0.000000   0.000002
   11            -0.000000  -0.000000   0.000002   0.000000   0.000002
   12            -0.000297  -0.000216  -0.000001  -0.000001  -0.000000
   13            -0.000000  -0.000003  -0.000000  -0.000000   0.000000
   14             0.000003  -0.000000   0.000000   0.000000  -0.000001
   15             0.000003   0.000000  -0.000000  -0.000000  -0.000000
   16            -0.000045  -0.000890   0.000001  -0.000000  -0.000000
   17            -0.000672  -0.000023   0.000006   2.003571   0.000136
   18            -0.000001  -0.000000  -0.000000  -0.000984  -0.000000
   19             0.000001  -0.000000   0.000000  -0.000986  -0.000000
   20            -0.000001   0.000000  -0.000000  -0.000983  -0.000000

                      6          7          8          9         10

                  2.000000   2.000000   2.000000   2.000000   2.000000

    1            -0.000156  -0.000000   0.270230   0.068998   0.529421
    2             0.000001  -0.000202   0.520821   0.311698   0.160507
    3             0.000002  -0.000274   0.482330   0.094013   0.401571
    4            -0.000399  -0.000001   0.252543   0.292257   0.205992
    5             2.002532  -0.000000   0.202070   0.364153   0.209081
    6            -0.000000  -0.000000   0.021068   0.001775   0.095058
    7             0.000000  -0.000000   0.017362   0.001623   0.093223
    8             0.000000   0.000000   0.015713   0.036709   0.028128
    9            -0.000000  -0.000000   0.019208   0.038619   0.027011
   10            -0.000992  -0.000000   0.014914   0.046635   0.024100
   11            -0.000988  -0.000000   0.012622   0.049915   0.028629
   12            -0.000001   2.004022   0.027065   0.010131   0.017954
   13             0.000000  -0.001196   0.003588   0.000074   0.007533
   14             0.000000  -0.001169   0.002493   0.000389   0.000018
   15            -0.000000  -0.001176   0.001509   0.002263   0.000910
   16            -0.000000  -0.000002   0.029465   0.003939   0.074028
   17             0.000001  -0.000001   0.088011   0.484507   0.064812
   18            -0.000000  -0.000000   0.006617   0.064824   0.013962
   19            -0.000000  -0.000000   0.006665   0.066780   0.004870
   20            -0.000000  -0.000000   0.005708   0.060698   0.013194

                     11         12         13         14         15

                  2.000000   2.000000   2.000000   2.000000   2.000000

    1             0.150037   0.262914   0.281308   0.145745   0.110026
    2             0.204218   0.142237   0.243769   0.183449   0.305891
    3             0.116959   0.146570   0.593340   0.196318   0.239420
    4             0.279710   0.312652   0.083043   0.161152   0.333222
    5             0.145646   0.447897   0.082743   0.109973   0.219032
    6             0.023697   0.082792   0.067032   0.025578   0.020528
    7             0.025656   0.053554   0.082733   0.062429   0.004850
    8             0.061517   0.074957   0.001329   0.087561   0.053840
    9             0.058468   0.106770   0.004180   0.016111   0.089976
   10             0.018805   0.157524   0.001241   0.029403   0.000150
   11             0.025024   0.138784   0.006322   0.037095   0.102009
   12             0.011734   0.028138   0.025590   0.422997   0.021215
   13             0.001193   0.004111   0.022522   0.157228   0.000088
   14             0.001547   0.003181   0.000265   0.157381   0.000164
   15             0.000214   0.006346   0.002847   0.103919   0.012766
   16             0.007105   0.009307   0.376401   0.016706   0.030367
   17             0.540309   0.014478   0.078772   0.052983   0.322489
   18             0.112403   0.003111   0.010597   0.015134   0.058145
   19             0.107612   0.003288   0.026682   0.000333   0.028310
   20             0.108144   0.001388   0.009285   0.018503   0.047513

                     16         17         18         19         20

                  2.000000   2.000000   2.000000   2.000000   2.000000

    1             0.174563   0.214168   0.144634   0.234912   0.196434
    2             0.063578   0.132050   0.086475   0.003771   0.286079
    3             0.055556   0.075109   0.054546   0.014388   0.278120
    4             0.173201   0.046043   0.233502   0.282846   0.086174
    5             0.349500   0.039419   0.015928   0.018349   0.249057
    6             0.065626   0.026124   0.112147   0.125498   0.005607
    7             0.042890   0.122541   0.015169   0.083086   0.087407
    8             0.059091   0.000364   0.125972   0.087121   0.042423
    9             0.061411   0.038446   0.071533   0.169142   0.000795
   10             0.189417   0.000078   0.001048   0.005029   0.001127
   11             0.050453   0.024600   0.009005   0.000546   0.117825
   12             0.263364   0.070743   0.023671   0.062477   0.035731
   13             0.080401   0.070232   0.024885   0.008817   0.005848
   14             0.069183   0.012341   0.000026   0.058089   0.007231
   15             0.124495   0.003557   0.000981   0.010938   0.028828
   16             0.033420   0.019234   0.024353   0.000282   0.098338
   17             0.091040   0.600661   0.568998   0.439261   0.284852
   18             0.007359   0.164223   0.094203   0.236556   0.061868
   19             0.037630   0.331076   0.084226   0.005355   0.049268
   20             0.007823   0.008992   0.308699   0.153538   0.076988

                     21         22         23         24         25

                  2.000000   2.000000   2.000000   2.000000   2.000000

    1             0.162354   0.221620   0.289091   0.583276   0.008991
    2             0.094964   0.078680   0.154405   0.347966   0.007497
    3             0.509119   0.080000   0.020764   0.031091   0.117984
    4             0.468244   0.111051   0.582469   0.084741   0.053336
    5             0.196577   0.472827   0.501122   0.442440   0.016156
    6             0.013046   0.185471   0.012347   0.000408   0.001477
    7             0.014604   0.027064   0.147814   0.002775   0.000430
    8             0.067489   0.035274   0.078294   0.017990   0.016959
    9             0.017743   0.095080   0.030971   0.000004   0.050597
   10             0.020533   0.354889   0.030287   0.014559   0.011477
   11             0.085805   0.167366   0.037727   0.034526   0.003540
   12             0.016859   0.034870   0.014114   0.009030   0.750954
   13             0.005054   0.001112   0.000378   0.000247   0.405395
   14             0.006950   0.015575   0.011395   0.006380   0.516809
   15             0.002542   0.027133   0.001778   0.003341   0.015022
   16             0.102300   0.007180   0.000312   0.049332   0.015746
   17             0.150910   0.042560   0.052290   0.252628   0.004109
   18             0.029184   0.001267   0.002724   0.000731   0.002504
   19             0.008409   0.007597   0.031711   0.118509   0.000880
   20             0.027315   0.033384   0.000006   0.000027   0.000138

                     26         27

                  2.000000   2.000000

    1             0.020896   0.029466
    2             0.022703   0.603218
    3             0.034453   0.486819
    4             0.031992   0.021440
    5             0.011924   0.005735
    6             0.008395   0.044219
    7             0.002372   0.037900
    8             0.003160   0.029504
    9             0.014062   0.025236
   10             0.000033   0.005936
   11             0.005972   0.001354
   12             0.797511   0.382393
   13             0.068498   0.206878
   14             0.208109   0.015502
   15             0.747963   0.005198
   16             0.002178   0.000715
   17             0.013653   0.026560
   18             0.006073   0.037100
   19            -0.000040   0.000094
   20             0.000094   0.034734

               ----- POPULATIONS IN EACH AO -----
                             MULLIKEN      LOWDIN
              1  C  1  S      1.99211     1.98518
              2  C  1  S      1.18384     1.03380
              3  C  1  X      0.96193     0.99729
              4  C  1  Y      0.95465     0.99151
              5  C  1  Z      1.00853     1.03218
              6  C  2  S      1.99279     1.98601
              7  C  2  S      1.17375     1.06053
              8  C  2  X      0.96960     1.00759
              9  C  2  Y      0.89482     0.92560
             10  C  2  Z      0.92294     0.93207
             11  C  3  S      1.99273     1.98633
             12  C  3  S      1.18499     1.04877
             13  C  3  X      0.95934     1.00065
             14  C  3  Y      0.98277     1.00458
             15  C  3  Z      0.90956     0.91135
             16  C  4  S      1.99209     1.98516
             17  C  4  S      1.18221     1.03117
             18  C  4  X      0.94578     0.98379
             19  C  4  Y      0.97809     1.00978
             20  C  4  Z      0.99942     1.02527
             21  C  5  S      1.99210     1.98511
             22  C  5  S      1.18165     1.03132
             23  C  5  X      0.95159     0.98792
             24  C  5  Y      0.97168     1.00362
             25  C  5  Z      1.00459     1.03084
             26  H  6  S      0.93691     0.96917
             27  H  7  S      0.92451     0.96026
             28  H  8  S      0.92242     0.95867
             29  H  9  S      0.93438     0.96724
             30  H 10  S      0.92620     0.96164
             31  H 11  S      0.93813     0.97052
             32  B 12  S      1.98892     1.97841
             33  B 12  S      0.90467     0.85943
             34  B 12  X      0.84583     0.90003
             35  B 12  Y      0.69099     0.74326
             36  B 12  Z      0.59964     0.65466
             37  H 13  S      1.07288     1.05172
             38  H 14  S      1.09186     1.07433
             39  H 15  S      1.10138     1.08455
             40  H 16  S      0.89977     0.94073
             41  C 17  S      1.99200     1.98537
             42  C 17  S      1.18356     1.01170
             43  C 17  X      0.94804     0.98856
             44  C 17  Y      1.03550     1.05664
             45  C 17  Z      1.01780     1.04179
             46  H 18  S      0.92760     0.95976
[...]
 18   H            X -0.00701640 -0.04881806  0.00029845  0.00124728  0.00006447
                   Y  0.00333205 -0.04934022 -0.00002184 -0.00027882  0.00045183
                   Z -0.00147162  0.03110056 -0.00030602  0.00005642  0.00041245
 19   H            X -0.00438141  0.08781163 -0.00021156 -0.00012812  0.00009339
                   Y -0.00384098  0.04631672  0.00017917  0.00179296  0.00147222
                   Z -0.00832156  0.03518562 -0.00070036 -0.00118014 -0.00059047
 20   H            X -0.00026100 -0.06478520 -0.00048503 -0.00172661 -0.00159607
                   Y -0.00501287 -0.05569112 -0.00083999 -0.00119745 -0.00102220
                   Z -0.00225078 -0.05004648  0.00051097  0.00203212  0.00116579

 TRANS. SAYVETZ    X -0.00000005 -0.00000047  0.00000014  0.00000009  0.00000006
                   Y  0.00000015  0.00000049 -0.00000003  0.00000020 -0.00000000
                   Z -0.00000003 -0.00000014  0.00000027  0.00000008  0.00000008
               TOTAL  0.00000017  0.00000069  0.00000031  0.00000023  0.00000010

   ROT. SAYVETZ    X -0.00026052  0.00021738 -0.00011923  0.00015240 -0.00005665
                   Y -0.00010435  0.00028559  0.00020878  0.00000583 -0.00010525
                   Z  0.00012890 -0.00008727  0.00003054  0.00005436 -0.00009808
               TOTAL  0.00030883  0.00036937  0.00024236  0.00016191  0.00015462

                           51          52          53          54          55
       FREQUENCY:      3569.23     3609.22     3609.92     3632.49     3723.16  
        SYMMETRY:         A           A           A           A           A   
    REDUCED MASS:      1.03948     1.06676     1.06701     1.06887     1.10989
    IR INTENSITY:      0.00383     0.01483     0.02810     0.02407     0.00290

  1   C            X  0.00041264 -0.03611441 -0.00862360  0.00772673  0.02103870
                   Y  0.00039590 -0.05677956 -0.01447047  0.00832764 -0.03335471
                   Z  0.00004432  0.01064877  0.00290763 -0.00041101 -0.08092982
  2   C            X  0.00245830 -0.00029746 -0.00048370  0.00061948 -0.00002483
                   Y -0.00021963  0.00127167  0.00050033 -0.00018796 -0.00013837
                   Z  0.00093439 -0.00100409 -0.00039444  0.00029957  0.00045945
  3   C            X  0.00034409  0.00048333 -0.00171683  0.00012468  0.00005640
                   Y  0.00023072  0.00051256 -0.00165556  0.00056382 -0.00053135
                   Z -0.00002755 -0.00016018  0.00111934 -0.00053418  0.00015992
  4   C            X  0.00023480 -0.01602944  0.06096173 -0.00874715  0.00054541
                   Y  0.00008685 -0.00562600  0.01960659 -0.00466145  0.00800111
                   Z -0.00010181  0.00632280 -0.02278679  0.00539840  0.01153052
  5   C            X  0.00005268 -0.00185138 -0.00861112 -0.04492671 -0.00174111
                   Y -0.00008816  0.00615597  0.00611672  0.04219092  0.00408313
                   Z  0.00005861 -0.00336610 -0.00382553 -0.03375633  0.00627807
  6   H            X -0.00070158  0.12106775  0.03014999 -0.01604872  0.10228198
                   Y -0.00432684  0.58371069  0.14515979 -0.08739402  0.47849532
                   Z -0.00278843  0.40012844  0.09935444 -0.05992565  0.32189769
  7   H            X -0.00157828  0.27902300  0.06868340 -0.03759878 -0.34688179
                   Y -0.00010659  0.05542482  0.01387982 -0.00668764 -0.07870794
                   Z  0.00292911 -0.51418353 -0.12721428  0.07129250  0.62959969
  8   H            X -0.00128938  0.07554238 -0.27895183  0.03654663 -0.05737555
                   Y -0.00167736  0.10168763 -0.37364338  0.04992333 -0.07550958
                   Z -0.00158591  0.08777285 -0.32391748  0.04440003 -0.06373493
  9   H            X -0.00131941  0.10774503 -0.40110988  0.06028104  0.05055006
                   Y  0.00059881 -0.04319597  0.16021999 -0.02625171 -0.01927316
                   Z  0.00220218 -0.15720166  0.58489969 -0.08748966 -0.07273751
 10   H            X -0.00022260  0.01482150  0.02068365  0.12658647 -0.00771220
                   Y -0.00017923  0.00894387  0.01150858  0.08410458 -0.00599674
                   Z -0.00116438  0.05938164  0.10053901  0.61171621 -0.04898469
 11   H            X -0.00059415  0.04005642  0.06786222  0.36683326  0.02396805
                   Y  0.00101978 -0.05927555 -0.10093226 -0.55002605 -0.03991249
                   Z  0.00045862 -0.02548696 -0.04321666 -0.24477150 -0.01695732
 12   B            X -0.00019759 -0.00001201 -0.00014268 -0.00002662 -0.00006383
                   Y  0.00002598  0.00011496  0.00030952 -0.00000499  0.00003554
                   Z  0.00011171  0.00002756  0.00002878 -0.00019743 -0.00021080
 13   H            X  0.00053397  0.00050474 -0.00081577 -0.00002597 -0.00020543
                   Y  0.00089532  0.00085828 -0.00078409 -0.00005613 -0.00060838
                   Z -0.00044481 -0.00022323  0.00025719  0.00006015  0.00047849
 14   H            X -0.00003615  0.00028309  0.00049900  0.00142566  0.00026801
                   Y -0.00021243  0.00049916 -0.00077248 -0.00172469 -0.00124432
                   Z -0.00001330 -0.00025231  0.00060116  0.00198760  0.00111107
 15   H            X  0.00268700  0.00076949 -0.00033119  0.00002626  0.00025940
                   Y  0.00053928 -0.00020728 -0.00020917  0.00010382 -0.00001251
                   Z  0.00084727 -0.00000108 -0.00004721  0.00004911  0.00015021
 16   H            X -0.00013120  0.00068863 -0.00029993  0.00131903 -0.00021550
                   Y -0.00281966 -0.00148256  0.02280720 -0.01201119  0.00322579
                   Z  0.00252253  0.00071056 -0.01841222  0.01031754 -0.00469525
 17   C            X -0.04508291 -0.00038468  0.00009763 -0.00009839 -0.00082845
                   Y -0.00807297  0.00023635 -0.00000920 -0.00012616  0.00124225
                   Z -0.02578341 -0.00001597  0.00013000 -0.00005880  0.00133765
 18   H            X  0.03188265  0.00016939 -0.00024764  0.00003236 -0.00054571
                   Y  0.44340661  0.00182526 -0.00111268  0.00095705 -0.01011877
                   Z  0.46519042  0.00170458 -0.00124148  0.00099321 -0.01056127
 19   H            X  0.10338607  0.00155338  0.00012989  0.00002127  0.00164879
                   Y -0.45946425 -0.00523301  0.00056541 -0.00003050 -0.00692009
                   Z  0.19849637  0.00253293 -0.00011076  0.00001882  0.00319797
 20   H            X  0.36463214  0.00318547 -0.00030426  0.00028755  0.00787845
                   Y  0.11333557  0.00088379 -0.00018887  0.00016200  0.00264163
                   Z -0.37168278 -0.00312843  0.00026202 -0.00045104 -0.00818973

 TRANS. SAYVETZ    X -0.00000006 -0.00000013  0.00000023 -0.00000017  0.00000006
                   Y -0.00000027 -0.00000051 -0.00000007  0.00000029  0.00000008
                   Z -0.00000057 -0.00000018 -0.00000059  0.00000028 -0.00000002
               TOTAL  0.00000063  0.00000055  0.00000063  0.00000043  0.00000011

   ROT. SAYVETZ    X  0.00029565 -0.00048446  0.00005627 -0.00041767  0.00003651
                   Y -0.00010268  0.00029518 -0.00032653 -0.00035109 -0.00002307
                   Z  0.00020591 -0.00025638  0.00019353  0.00016742 -0.00001127
               TOTAL  0.00037464  0.00062254  0.00038372  0.00057074  0.00004463

                           56          57          58          59          60
       FREQUENCY:      3725.71     3738.57     3744.03     3749.15     3768.63  
        SYMMETRY:         A           A           A           A           A   
    REDUCED MASS:      1.11043     1.10689     1.10040     1.11088     1.11026
    IR INTENSITY:      0.00010     0.00554     0.40310     0.00941     0.01133

  1   C            X  0.00324583  0.00031244  0.00071776  0.00163646 -0.00030372
                   Y -0.00464739 -0.00083098  0.00064682 -0.00317134 -0.00012053
                   Z -0.01207780 -0.00178386 -0.00028227 -0.00679468 -0.00026772
  2   C            X -0.00009734 -0.00042579  0.00537486 -0.00019971 -0.00045668
                   Y -0.00038649  0.00022779  0.00414345 -0.00014048  0.00008280
                   Z  0.00005253 -0.00022080 -0.00159273  0.00000443 -0.00037004
  3   C            X  0.00032751  0.00023182  0.00191885  0.00000768  0.00027147
                   Y  0.00338484 -0.00575230 -0.06612569  0.00148685  0.00055824
                   Z -0.00239978  0.00478170  0.05581045 -0.00120884 -0.00020899
  4   C            X -0.00520190 -0.00044440 -0.00449976 -0.00002181 -0.00000661
                   Y -0.05157441 -0.00059322 -0.00191902 -0.00486155  0.00000467
                   Z -0.07339956 -0.00100683 -0.00428941 -0.00711823 -0.00005049
  5   C            X -0.00208787 -0.00024394 -0.00058218  0.01504686  0.00002055
                   Y  0.00669563  0.00064867  0.00011685 -0.04838798  0.00004252
                   Z  0.00929251  0.00081013 -0.00195730 -0.07572400  0.00003355
  6   H            X  0.01461367  0.00257539 -0.00134871  0.01309418  0.00025425
                   Y  0.06887226  0.01227892 -0.00370229  0.04931466  0.00170907
                   Z  0.04625454  0.00816425 -0.00263860  0.03283644  0.00117359
  7   H            X -0.05124202 -0.00701229 -0.00328551 -0.03172857 -0.00003716
                   Y -0.01185015 -0.00178965 -0.00051758 -0.00698636  0.00013897
                   Z  0.09414667  0.01295553  0.00436243  0.05487833 -0.00010124
  8   H            X  0.36914121  0.00497671  0.02873031  0.03587274  0.00034615
                   Y  0.48262398  0.00665299  0.03565204  0.04803895  0.00036377
                   Z  0.41110930  0.00569689  0.03147877  0.03916671  0.00030591
  9   H            X -0.31654282 -0.00216939 -0.00175908 -0.03726671 -0.00006864
                   Y  0.12153427  0.00085463  0.00053338  0.01156042  0.00002481
                   Z  0.45412561  0.00387971  0.00636351  0.05332779  0.00018067
 10   H            X -0.01567469 -0.00144024  0.00376829  0.14592281 -0.00007287
                   Y -0.01202670 -0.00095706  0.00219017  0.08658491 -0.00006176
                   Z -0.07325132 -0.00700966  0.01846485  0.67959035 -0.00052396
 11   H            X  0.04105173  0.00385313 -0.00175073 -0.32443597 -0.00007410
                   Y -0.05896086 -0.00585666  0.00249909  0.48395969  0.00004670
                   Z -0.02728098 -0.00257275  0.00081053  0.20950165  0.00000937
 12   B            X -0.00013916  0.00049021  0.00054834 -0.00016586  0.00004233
                   Y -0.00005756 -0.00001969 -0.00015875  0.00016002  0.00007593
                   Z -0.00011056 -0.00005289 -0.00047638 -0.00031433  0.00000445
 13   H            X  0.00046872 -0.00056663  0.00090187 -0.00018521  0.00002095
                   Y  0.00012798 -0.00006907  0.00369590 -0.00057454 -0.00000637
                   Z  0.00032264  0.00023550 -0.00219777  0.00049956  0.00014200
 14   H            X  0.00039346 -0.00066085  0.00040711  0.00196825 -0.00016482
                   Y -0.00011562  0.00043203 -0.00008015 -0.00240621  0.00005445
                   Z  0.00025576 -0.00064700 -0.00235278  0.00224324 -0.00015283
 15   H            X  0.00127687 -0.00378524 -0.00171677  0.00086017  0.00007509
                   Y  0.00014025 -0.00015003 -0.00059928 -0.00004934  0.00030293
                   Z  0.00051820 -0.00061079 -0.00182368  0.00037783 -0.00060494
 16   H            X  0.00308487 -0.00514911 -0.05832816  0.00123918  0.00060691
                   Y -0.03539647  0.06376082  0.71449321 -0.01538342 -0.00435623
                   Z  0.03106867 -0.05407398 -0.61368458  0.01279898  0.00347084
 17   C            X -0.00035513  0.03521077 -0.00383625  0.00034909 -0.01958853
                   Y  0.00065012 -0.05232219  0.00415122 -0.00051463 -0.07428255
                   Z  0.00059421 -0.06404341  0.00581080 -0.00063547  0.04990823
 18   H            X -0.00059473  0.03524882 -0.00278043  0.00038795  0.00440730
                   Y -0.00546415  0.48077797 -0.04073467  0.00468672  0.08539402
                   Z -0.00581899  0.50042291 -0.04193698  0.00487144  0.09504343
 19   H            X  0.00086292 -0.05935098  0.00486055 -0.00055378 -0.15038739
                   Y -0.00401091  0.26889780 -0.02144833  0.00258821  0.67369831
                   Z  0.00181187 -0.12179569  0.00983632 -0.00117687 -0.29235701
 20   H            X  0.00431922 -0.38433766  0.03710764 -0.00361908  0.38352474
                   Y  0.00141291 -0.12661267  0.01209327 -0.00119132  0.11957186
                   Z -0.00406114  0.38776324 -0.03848769  0.00371667 -0.39059948

 TRANS. SAYVETZ    X -0.00000004  0.00000005  0.00000020 -0.00000000 -0.00000000
                   Y  0.00000001 -0.00000004  0.00000007 -0.00000001 -0.00000010
                   Z -0.00000005  0.00000013  0.00000028  0.00000001  0.00000004
               TOTAL  0.00000006  0.00000014  0.00000035  0.00000001  0.00000010

   ROT. SAYVETZ    X -0.00003572 -0.00000449  0.00009625 -0.00004718  0.00007916
                   Y  0.00005876 -0.00003610  0.00001967 -0.00001414 -0.00009481
                   Z -0.00001103 -0.00005873  0.00000185 -0.00001529  0.00005833
               TOTAL  0.00006964  0.00006909  0.00009825  0.00005158  0.00013659

 REFERENCE ON SAYVETZ CONDITIONS - A. SAYVETZ, J.CHEM.PHYS., 7, 383-389(1939).

 NOTE - THE MODES J,K ARE ORTHONORMALIZED ACCORDING TO
 SUM ON I   M(I) * (X(I,J)*X(I,K) + Y(I,J)*Y(I,K) + Z(I,J)*Z(I,K)) = DELTA(J,K)

  MODE FREQ(CM**-1)  SYMMETRY  RED. MASS  IR INTENS.
     1      81.882    A        1.080521    0.006191
     2       0.042    A        4.807545    0.000004
     3       0.020    A        4.805060    0.000001
     4       0.004    A        4.805483    0.000000
     5       4.715    A        3.057455    0.040004
     6       5.038    A        3.070350    0.037772
     7       8.505    A        2.796370    0.074239
     8     139.531    A        1.669771    0.025344
     9     226.371    A        1.046688    0.016357
    10     242.517    A        2.534832    0.270358
    11     275.734    A        3.054562    0.280885
    12     295.701    A        3.051342    0.177695
    13     343.320    A        3.132222    0.859322
    14     366.228    A        2.740780    0.347225
    15     481.079    A        2.457020    0.584620
    16     665.753    A        3.988054    0.027883
    17     814.300    A        2.860154    0.022587
    18     894.314    A        1.328877    0.031715
    19     964.030    A        1.129978    0.526289
    20    1000.225    A        2.703153    0.084074
    21    1027.902    A        1.319889    0.203925
    22    1062.384    A        1.382183    0.003632
    23    1081.540    A        2.061363    0.021003
    24    1097.401    A        1.170242    0.212850
    25    1119.833    A        1.789100    0.007990
    26    1209.511    A        1.336995    0.273311
    27    1236.783    A        1.321160    0.246592
    28    1259.584    A        1.731721    0.005698
    29    1292.879    A        1.617421    0.167166
    30    1377.894    A        1.196530    0.199511
    31    1385.307    A        2.029174    0.231941
    32    1423.475    A        1.163665    6.122048
    33    1464.293    A        1.197954    0.275494
    34    1499.458    A        1.106370    0.002928
    35    1512.680    A        1.463406    0.063914
    36    1532.518    A        1.084295    0.282802
    37    1539.933    A        1.080220    0.232454
    38    1599.852    A        1.995728    0.177027
    39    1626.690    A        1.711555    0.041028
    40    1645.519    A        1.942336    0.001886
    41    1718.297    A        1.320642    0.027943
    42    1800.815    A        1.062622    0.068516
    43    1803.958    A        1.088338    0.047507
    44    1808.384    A        1.061728    0.091884
    45    1812.606    A        1.107036    0.000964
    46    1834.562    A        1.119328    0.011744
    47    1957.620    A        5.938260    0.333888
    48    3095.060    A        1.019746    0.138588
    49    3276.691    A        1.122200    0.237828
    50    3313.512    A        1.128862    0.717088
    51    3569.235    A        1.039476    0.003827
    52    3609.217    A        1.066763    0.014832
    53    3609.923    A        1.067010    0.028097
    54    3632.488    A        1.068871    0.024067
    55    3723.157    A        1.109888    0.002899
    56    3725.712    A        1.110435    0.000097
    57    3738.573    A        1.106892    0.005537
    58    3744.035    A        1.100399    0.403097
    59    3749.154    A        1.110884    0.009408
    60    3768.633    A        1.110260    0.011328

     -------------------------------
     THERMOCHEMISTRY AT T=  298.15 K
     -------------------------------

 USING IDEAL GAS, RIGID ROTOR, HARMONIC NORMAL MODE APPROXIMATIONS.
 P=  1.01325E+05 PASCAL.
 ALL FREQUENCIES ARE SCALED BY   1.00000
 THE MOMENTS OF INERTIA ARE (IN AMU*BOHR**2)
            491.99739           763.89238           926.85957
 THE ROTATIONAL SYMMETRY NUMBER IS  1.0
 THE ROTATIONAL CONSTANTS ARE (IN GHZ)
      3.66483     2.36040     1.94537
   1 IMAGINARY FREQUENCY VIBRATION(S) IS(ARE) EXCLUDED
     FROM THE FOLLOWING THERMOCHEMICAL ANALYSIS.
      8 -     60 VIBRATIONAL MODES ARE USED IN THERMOCHEMISTRY.
 THE HARMONIC ZERO POINT ENERGY IS (SCALED BY   1.000)
        0.211861 HARTREE/MOLECULE    46498.086571 CM**-1/MOLECULE 
      132.944834 KCAL/MOL              556.241186 KJ/MOL

               Q               LN Q
 ELEC.     1.00000E+00       0.000000
 TRANS.    3.70351E+07      17.427377
 ROT.      2.11274E+05      12.260911
 VIB.      1.51211E+01       2.716091
 TOT.      1.18316E+14      32.404379

              E         H         G         CV        CP        S
           KJ/MOL    KJ/MOL    KJ/MOL   J/MOL-K   J/MOL-K   J/MOL-K
 ELEC.      0.000     0.000     0.000     0.000     0.000     0.000
 TRANS.     3.718     6.197   -43.201    12.472    20.786   165.684
 ROT.       3.718     3.718   -30.394    12.472    12.472   114.414
 VIB.     567.005   567.005   549.508    80.938    80.938    58.686
 TOTAL    574.442   576.921   475.913   105.881   114.196   338.785
 VIB. THERMAL CORRECTION E(T)-E(0) = H(T)-H(0) =     10764.300 J/MOL

              E         H         G         CV        CP        S
         KCAL/MOL  KCAL/MOL  KCAL/MOL CAL/MOL-K CAL/MOL-K CAL/MOL-K
 ELEC.      0.000     0.000     0.000     0.000     0.000     0.000
 TRANS.     0.889     1.481   -10.325     2.981     4.968    39.600
 ROT.       0.889     0.889    -7.264     2.981     2.981    27.346
 VIB.     135.518   135.518   131.336    19.345    19.345    14.026
 TOTAL    137.295   137.887   113.746    25.306    27.293    80.971
 VIB. THERMAL CORRECTION E(T)-E(0) = H(T)-H(0) =      2572.729 CAL/MOL
 ......END OF NORMAL COORDINATE ANALYSIS......
 STEP CPU TIME =     0.01 TOTAL CPU TIME =         74.7 (      1.2 MIN)
 TOTAL WALL CLOCK TIME=         75.2 SECONDS, CPU UTILIZATION IS    99.35%
               580000  WORDS OF DYNAMIC MEMORY USED
 EXECUTION OF GAMESS TERMINATED NORMALLY Sun Nov 14 01:32:05 2021
 DDI: 263640 bytes (0.3 MB / 0 MWords) used by master data server.

 ----------------------------------------
 CPU timing information for all processes
 ========================================
 0: 73.628 + 1.45 = 74.674
 ----------------------------------------
 ddikick.x: exited gracefully.
----- accounting info -----
Files used on the master node chemcompute-node-0.novalocal were:
-rw-r--r--. 1 chemcomp chemcomp     1514 Nov 14 01:30 /scratch/306305/342213.F05
-rw-rw-r--. 1 chemcomp chemcomp  8100720 Nov 14 01:31 /scratch/306305/342213.F08
-rw-rw-r--. 1 chemcomp chemcomp 70451200 Nov 14 01:32 /scratch/306305/342213.F10
-rw-rw-r--. 1 chemcomp chemcomp   564960 Nov 14 01:32 /scratch/306305/342213.F18
Sun Nov 14 01:32:09 UTC 2021
0.139u 0.090s 1:18.72 0.2%	0+0k 8+216io 0pf+0w
Finishing Up...
Looking for IR data...
Looking for Raman data...
vibramans not found
Looking for thermodynamics data...
Looking for UV-Vis data...
306305
