----- GAMESS execution script 'rungms' -----
This job is running on host chemcompute-node-0.novalocal
under operating system Linux at Mon Nov 15 15:01:54 UTC 2021
SLURM has assigned the following compute nodes to this run:
chemcompute-node-0
Available scratch disk space (Kbyte units) at beginning of the job is
Filesystem     1K-blocks     Used Available Use% Mounted on
/dev/sda1       62903276 16937468  45965808  27% /
GAMESS temporary binary files will be written to /scratch/306859
GAMESS supplementary output files will be written to /data/slurm/342893
Copying input file 342893.inp to your run's scratch directory...
The generated host list is
chemcompute-node-0.novalocal

 Distributed Data Interface kickoff program.
 Initiating 1 compute processes on 1 nodes to run the following command:
 /data/gamess-2019R1-ddi/gamess.00.x 342893 

          ******************************************************
          *         GAMESS VERSION = 30 JUN 2019 (R1)          *
          *             FROM IOWA STATE UNIVERSITY             *
          * M.W.SCHMIDT, K.K.BALDRIDGE, J.A.BOATZ, S.T.ELBERT, *
          *   M.S.GORDON, J.H.JENSEN, S.KOSEKI, N.MATSUNAGA,   *
          *          K.A.NGUYEN, S.J.SU, T.L.WINDUS,           *
          *       TOGETHER WITH M.DUPUIS, J.A.MONTGOMERY       *
          *         J.COMPUT.CHEM.  14, 1347-1363(1993)        *
          **************** 64 BIT LINUX VERSION ****************

  SINCE 1993, STUDENTS AND POSTDOCS WORKING AT IOWA STATE UNIVERSITY
  AND ALSO IN THEIR VARIOUS JOBS AFTER LEAVING ISU HAVE MADE IMPORTANT
  CONTRIBUTIONS TO THE CODE:
     IVANA ADAMOVIC, CHRISTINE AIKENS, YURI ALEXEEV, POOJA ARORA,
     ANDREY ASADCHEV, ROB BELL, PRADIPTA BANDYOPADHYAY, JONATHAN BENTZ,
     COLLEEN BERTONI, BRETT BODE, KURT BRORSEN, CALEB CARLIN, GALINA CHABAN,
     WEI CHEN, CHEOL HO CHOI, PAUL DAY, ALBERT DEFUSCO, NUWAN DESILVA,
     TIM DUDLEY, DMITRI FEDOROV, ALEX FINDLATER, GRAHAM FLETCHER, 
     MARK FREITAG, KURT GLAESEMANN, ANASTASIA GUNINA,
     DAN KEMP, GRANT MERRILL, NORIYUKI MINEZAWA, JONATHAN MULLIN,
     TAKESHI NAGATA, SEAN NEDD, HEATHER NETZLOFF, BOSILJKA NJEGIC, RYAN OLSON,
     MIKE PAK, BUU PHAM,
     SPENCER PRUITT, LUKE ROSKOP, JIM SHOEMAKER, LYUDMILA SLIPCHENKO,
     TONY SMITH, SAROM SOK LEANG, JIE SONG, TETSUYA TAKETSUGU, SIMON WEBB,
     PENG XU, SOOHAENG YOO, FEDERICO ZAHARIEV

  ADDITIONAL CODE HAS BEEN PROVIDED BY COLLABORATORS IN OTHER GROUPS:
     IOWA STATE UNIVERSITY:
          JOE IVANIC, AARON WEST, LAIMUTIS BYTAUTAS, KLAUS RUEDENBERG
     UNIVERSITY OF TOKYO: KIMIHIKO HIRAO, TAKAHITO NAKAJIMA,
          TAKAO TSUNEDA, MUNEAKI KAMIYA, SUSUMU YANAGISAWA,
          KIYOSHI YAGI, MAHITO CHIBA, SEIKEN TOKURA, NAOAKI KAWAKAMI
     UNIVERSITY OF AARHUS: FRANK JENSEN
     UNIVERSITY OF IOWA: VISVALDAS KAIRYS, HUI LI
     NATIONAL INST. OF STANDARDS AND TECHNOLOGY: WALT STEVENS, DAVID GARMER
     UNIVERSITY OF PISA: BENEDETTA MENNUCCI, JACOPO TOMASI
     UNIVERSITY OF MEMPHIS: HENRY KURTZ, PRAKASHAN KORAMBATH
     UNIVERSITY OF ALBERTA: TOBY ZENG, MARIUSZ KLOBUKOWSKI
     UNIVERSITY OF NEW ENGLAND: MARK SPACKMAN
     MIE UNIVERSITY: HIROAKI UMEDA
     NAT. INST. OF ADVANCED INDUSTRIAL SCIENCE AND TECHNOLOGY: KAZUO KITAURA
     MICHIGAN STATE UNIVERSITY:
          KAROL KOWALSKI, MARTA WLOCH, JEFFREY GOUR, JESSE LUTZ,
          WEI LI, JUN SHEN, J. EMILIANO DEUSTUA, PIOTR PIECUCH
     UNIVERSITY OF MINNESOTA:
          YINAN SHU
     UNIVERSITY OF SILESIA: MONIKA MUSIAL, STANISLAW KUCHARSKI
     FACULTES UNIVERSITAIRES NOTRE-DAME DE LA PAIX:
          OLIVIER QUINET, BENOIT CHAMPAGNE
     UNIVERSITY OF CALIFORNIA - SANTA BARBARA: BERNARD KIRTMAN
     INSTITUTE FOR MOLECULAR SCIENCE:
          KAZUYA ISHIMURA, MICHIO KATOUDA, AND SHIGERU NAGASE
     UNIVERSITY OF NOTRE DAME: ANNA POMOGAEVA, DAN CHIPMAN
     KYUSHU UNIVERSITY:
          HARUYUKI NAKANO,
          FENG LONG GU, JACEK KORCHOWIEC, MARCIN MAKOWSKI, AND YURIKO AOKI,
          HIROTOSHI MORI AND EISAKU MIYOSHI
     PENNSYLVANIA STATE UNIVERSITY:
          TZVETELIN IORDANOV, CHET SWALINA, JONATHAN SKONE,
          SHARON HAMMES-SCHIFFER
     WASEDA UNIVERSITY:
          MASATO KOBAYASHI, TOMOKO AKAMA, TSUGUKI TOUMA,
          TAKESHI YOSHIKAWA, YASUHIRO IKABATA, JUNJI SEINO,
          YUYA NAKAJIMA, HIROMI NAKAI
     NANJING UNIVERSITY: SHUHUA LI
     UNIVERSITY OF NEBRASKA:
          PEIFENG SU, DEJUN SI, NANDUN THELLAMUREGE, YALI WANG, HUI LI
     UNIVERSITY OF ZURICH: ROBERTO PEVERATI, KIM BALDRIDGE
     N. COPERNICUS UNIVERSITY AND JACKSON STATE UNIVERSITY:
          MARIA BARYSZ
     UNIVERSITY OF COPENHAGEN: Jimmy Kromann, CASPER STEINMANN
     TOKYO INSTITUTE OF TECHNOLOGY: HIROYA NAKATA
     NAGOYA UNIVERSITY: YOSHIO NISHIMOTO, STEPHAN IRLE
     MOSCOW STATE UNIVERSITY: VLADIMIR MIRONOV
     A.N.NESMEYANOV INSTITUTE OF ORGANOELEMENT COMPOUNDS OF RUSSIAN ACADEMY OF SCIENCES:
          IGOR S. GERASIMOV

 EXECUTION OF GAMESS BEGUN Mon Nov 15 15:01:54 2021

            ECHO OF THE FIRST FEW INPUT CARDS -
 INPUT CARD>!File created by the GAMESS Input Deck Generator Plugin for Avogadro            
 INPUT CARD> $BASIS GBASIS=STO NGAUSS=3 $END                                                
 INPUT CARD> $CONTRL SCFTYP=RHF RUNTYP=OPTIMIZE NZVAR=1 mult=1  ICHARG=-1 $END              
 INPUT CARD> $STATPT hssend=.t. OPTTOL=0.0005 NSTEP=50 $END                                 
 INPUT CARD> $STATPT HESS=calc ihrep=5 $END                                                 
 INPUT CARD> $FORCE nvib=2 $END                                                             
 INPUT CARD> $ZMAT DLC=.t. auto=.t. nonvdw(1)=9,12,3,12 $END                                
 INPUT CARD> $ZMAT IFZMAT(1)=1,9,12,1,3,12 fvalue(1)=1.99,1.97 $END                         
 INPUT CARD>                                                                                
 INPUT CARD> $DATA                                                                          
 INPUT CARD>Title                                                                           
 INPUT CARD>C1                                                                              
 INPUT CARD>C     6.0    -1.91078     3.22485    -0.17110                                   
 INPUT CARD>C     6.0    -0.70193     2.37222     0.15153                                   
 INPUT CARD>C     6.0    -1.16321     0.98595    -0.29052                                   
 INPUT CARD>H     1.0    -0.47890     2.36364     1.24141                                   
 INPUT CARD>H     1.0     0.18350     2.73913    -0.40949                                   
 INPUT CARD>C     6.0    -3.04537     2.33403     0.26770                                   
 INPUT CARD>H     1.0    -1.97552     3.33833    -1.27839                                   
 INPUT CARD>H     1.0    -1.90093     4.23473     0.29085                                   
 INPUT CARD>C     6.0    -2.62892     0.94895    -0.24206                                   
 INPUT CARD>H     1.0    -4.03523     2.66545    -0.11072                                   
 INPUT CARD>H     1.0    -3.07918     2.32796     1.38073                                   
 INPUT CARD>Br    35.0    -1.83658    -0.14614     1.19633                                  
 INPUT CARD>H     1.0    -0.46057     0.26869    -0.76385                                   
 INPUT CARD>H     1.0    -2.91166     0.66579    -1.27815                                   
 INPUT CARD> $END                                                                           
    1000000 WORDS OF MEMORY AVAILABLE

     BASIS OPTIONS
     -------------
     GBASIS=STO          IGAUSS=       3      POLAR=NONE    
     NDFUNC=       0     NFFUNC=       0     DIFFSP=       F
     NPFUNC=       0      DIFFS=       F     BASNAM=        


     RUN TITLE
     ---------
 Title                                                                           

 THE POINT GROUP OF THE MOLECULE IS C1      
 THE ORDER OF THE PRINCIPAL AXIS IS     0

 ATOM      ATOMIC                      COORDINATES (BOHR)
           CHARGE         X                   Y                   Z
 C           6.0    -3.6108506228        6.0940828515       -0.3233321165
 C           6.0    -1.3264553626        4.4828457826        0.2863501789
 C           6.0    -2.1981481662        1.8631753376       -0.5490031940
 H           1.0    -0.9049897755        4.4666319336        2.3459247384
 H           1.0     0.3467647187        5.1762051447       -0.7738238947
 C           6.0    -5.7549148312        4.4106771471        0.5058796469
 H           1.0    -3.7331914833        6.3085289566       -2.4158068054
 H           1.0    -3.5922368218        8.0024793320        0.5496268035
 C           6.0    -4.9679384436        1.7932554760       -0.4574270726
 H           1.0    -7.6254789974        5.0369701340       -0.2092304614
 H           1.0    -5.8188064669        4.3992065104        2.6092013630
 BR         35.0    -3.4706329545       -0.2761645558        2.2607358909
 H           1.0    -0.8703510982        0.5077504756       -1.4434671957
 H           1.0    -5.5022395694        1.2581606654       -2.4153532712

          INTERNUCLEAR DISTANCES (ANGS.)
          ------------------------------

                1 C          2 C          3 C          4 H          5 H     

   1 C       0.0000000    1.5140629 *  2.3634287 *  2.1879551 *  2.1630447 *
   2 C       1.5140629 *  0.0000000    1.5264115 *  1.1124992 *  1.1105641 *
   3 C       2.3634287 *  1.5264115 *  0.0000000    2.1709720 *  2.2139155 *
   4 H       2.1879551 *  1.1124992 *  2.1709720 *  0.0000000    1.8180312 *
   5 H       2.1630447 *  1.1105641 *  2.2139155 *  1.8180312 *  0.0000000  
   6 C       1.5077799 *  2.3466284 *  2.3814818 *  2.7451332 *  3.3238974  
   7 H       1.1149709 *  2.1447777 *  2.6775784 *  3.0885731    2.4032052 *
   8 H       1.1105640 *  2.2194492 *  3.3818328    2.5350959 *  2.6593503 *
   9 C       2.3875680 *  2.4277358 *  1.4669776 *  2.9706257 *  3.3380359  
  10 H       2.1976947 *  3.3564338    3.3318984    3.8166514    4.2299380  
  11 H       2.1395669 *  2.6766040 *  2.8748928 *  2.6042541 *  3.7441994  
  12 BR      3.6385360    2.9531635 *  1.9863982 *  2.8538260 *  3.8709384  
  13 H       3.3456455    2.3067322 *  1.1100478 *  2.9000378 *  2.5774932 *
  14 H       2.9624498 *  3.1366853    2.0334682 *  3.8921971    3.8253528  

                6 C          7 H          8 H          9 C         10 H     

   1 C       1.5077799 *  1.1149709 *  1.1105640 *  2.3875680 *  2.1976947 *
   2 C       2.3466284 *  2.1447777 *  2.2194492 *  2.4277358 *  3.3564338  
   3 C       2.3814818 *  2.6775784 *  3.3818328    1.4669776 *  3.3318984  
   4 H       2.7451332 *  3.0885731    2.5350959 *  2.9706257 *  3.8166514  
   5 H       3.3238974    2.4032052 *  2.6593503 *  3.3380359    4.2299380  
   6 C       0.0000000    2.1315703 *  2.2187698 *  1.5335359 *  1.1103440 *
   7 H       2.1315703 *  0.0000000    1.8087595 *  2.6851533 *  2.4614276 *
   8 H       2.2187698 *  1.8087595 *  0.0000000    3.4073909    2.6793907 *
   9 C       1.5335359 *  2.6851533 *  3.4073909    0.0000000    2.2229103 *
  10 H       1.1103440 *  2.4614276 *  2.6793907 *  2.2229103 *  0.0000000  
  11 H       1.1135599 *  3.0512017    2.4923650 *  2.1766603 *  1.8034285 *
  12 BR      2.9111459 *  4.2761051    4.4739308    1.9738264 *  3.8009841  
  13 H       3.4656768    3.4615769    4.3493106    2.3316861 *  4.3530715  
  14 H       2.2782790 *  2.8317536 *  4.0274892    1.1106773 *  2.5737021 *

               11 H         12 BR        13 H         14 H     

   1 C       2.1395669 *  3.6385360    3.3456455    2.9624498 *
   2 C       2.6766040 *  2.9531635 *  2.3067322 *  3.1366853  
   3 C       2.8748928 *  1.9863982 *  1.1100478 *  2.0334682 *
   4 H       2.6042541 *  2.8538260 *  2.9000378 *  3.8921971  
   5 H       3.7441994    3.8709384    2.5774932 *  3.8253528  
   6 C       1.1135599 *  2.9111459 *  3.4656768    2.2782790 *
   7 H       3.0512017    4.2761051    3.4615769    2.8317536 *
   8 H       2.4923650 *  4.4739308    4.3493106    4.0274892  
   9 C       2.1766603 *  1.9738264 *  2.3316861 *  1.1106773 *
  10 H       1.8034285 *  3.8009841    4.3530715    2.5737021 *
  11 H       0.0000000    2.7747484 *  3.9619357    3.1401457  
  12 BR      2.7747484 *  0.0000000    2.4305952 *  2.8174596 *
  13 H       3.9619357    2.4305952 *  0.0000000    2.5357514 *
  14 H       3.1401457    2.8174596 *  2.5357514 *  0.0000000  

  * ... LESS THAN  3.000


     ATOMIC BASIS SET
     ----------------
 THE CONTRACTED PRIMITIVE FUNCTIONS HAVE BEEN UNNORMALIZED
 THE CONTRACTED BASIS FUNCTIONS ARE NOW NORMALIZED TO UNITY

  SHELL TYPE  PRIMITIVE        EXPONENT          CONTRACTION COEFFICIENT(S)

 C         

      1   S       1            71.6168373    0.154328967295
      1   S       2            13.0450963    0.535328142282
      1   S       3             3.5305122    0.444634542185

      2   L       4             2.9412494   -0.099967229187    0.155916274999
      2   L       5             0.6834831    0.399512826089    0.607683718598
      2   L       6             0.2222899    0.700115468880    0.391957393099

 C         

      3   S       7            71.6168373    0.154328967295
      3   S       8            13.0450963    0.535328142282
      3   S       9             3.5305122    0.444634542185

      4   L      10             2.9412494   -0.099967229187    0.155916274999
      4   L      11             0.6834831    0.399512826089    0.607683718598
      4   L      12             0.2222899    0.700115468880    0.391957393099

 C         

      5   S      13            71.6168373    0.154328967295
      5   S      14            13.0450963    0.535328142282
      5   S      15             3.5305122    0.444634542185

      6   L      16             2.9412494   -0.099967229187    0.155916274999
      6   L      17             0.6834831    0.399512826089    0.607683718598
      6   L      18             0.2222899    0.700115468880    0.391957393099

 H         

      7   S      19             3.4252509    0.154328967295
      7   S      20             0.6239137    0.535328142282
      7   S      21             0.1688554    0.444634542185

 H         

      8   S      22             3.4252509    0.154328967295
      8   S      23             0.6239137    0.535328142282
      8   S      24             0.1688554    0.444634542185

 C         

      9   S      25            71.6168373    0.154328967295
      9   S      26            13.0450963    0.535328142282
      9   S      27             3.5305122    0.444634542185

     10   L      28             2.9412494   -0.099967229187    0.155916274999
     10   L      29             0.6834831    0.399512826089    0.607683718598
     10   L      30             0.2222899    0.700115468880    0.391957393099

 H         

     11   S      31             3.4252509    0.154328967295
     11   S      32             0.6239137    0.535328142282
     11   S      33             0.1688554    0.444634542185

 H         

     12   S      34             3.4252509    0.154328967295
     12   S      35             0.6239137    0.535328142282
     12   S      36             0.1688554    0.444634542185

 C         

     13   S      37            71.6168373    0.154328967295
     13   S      38            13.0450963    0.535328142282
     13   S      39             3.5305122    0.444634542185

     14   L      40             2.9412494   -0.099967229187    0.155916274999
     14   L      41             0.6834831    0.399512826089    0.607683718598
     14   L      42             0.2222899    0.700115468880    0.391957393099

 H         

     15   S      43             3.4252509    0.154328967295
     15   S      44             0.6239137    0.535328142282
     15   S      45             0.1688554    0.444634542185

 H         

     16   S      46             3.4252509    0.154328967295
     16   S      47             0.6239137    0.535328142282
     16   S      48             0.1688554    0.444634542185

 BR        

     17   S      49          2629.9974710    0.154328967295
     17   S      50           479.0573224    0.535328142282
     17   S      51           129.6516070    0.444634542185

     18   L      52           219.8350255   -0.099967229187    0.155916274999
     18   L      53            51.0849322    0.399512826089    0.607683718598
     18   L      54            16.6144055    0.700115468880    0.391957393099

     19   L      55            20.6524416   -0.219620369005    0.010587604289
     19   L      56             5.7619788    0.225595433605    0.595167005266
     19   L      57             2.2551994    0.900398426019    0.462001011973

     20   D      58            22.3657496    0.168659606013
     20   D      59             7.0128139    0.584798481745
     20   D      60             2.7316638    0.405677952331

     21   L      61             1.3960375   -0.308844121382   -0.121546859998
     21   L      62             0.5152256    0.019606411652    0.571522760389
     21   L      63             0.2275291    1.131034441567    0.549894947089

 H         

     22   S      64             3.4252509    0.154328967295
     22   S      65             0.6239137    0.535328142282
     22   S      66             0.1688554    0.444634542185

 H         

     23   S      67             3.4252509    0.154328967295
     23   S      68             0.6239137    0.535328142282
     23   S      69             0.1688554    0.444634542185

 TOTAL NUMBER OF BASIS SET SHELLS             =   23
 NUMBER OF CARTESIAN GAUSSIAN BASIS FUNCTIONS =   52
 NUMBER OF ELECTRONS                          =   74
 CHARGE OF MOLECULE                           =   -1
 SPIN MULTIPLICITY                            =    1
 NUMBER OF OCCUPIED ORBITALS (ALPHA)          =   37
 NUMBER OF OCCUPIED ORBITALS (BETA )          =   37
 TOTAL NUMBER OF ATOMS                        =   14
 THE NUCLEAR REPULSION ENERGY IS      434.8770204294

     $CONTRL OPTIONS
     ---------------
 SCFTYP=RHF          RUNTYP=OPTIMIZE     EXETYP=RUN     
 MPLEVL=       0     CITYP =NONE         CCTYP =NONE         VBTYP =NONE    
 DFTTYP=NONE         TDDFT =NONE    
 MULT  =       1     ICHARG=      -1     NZVAR =       1     COORD =UNIQUE  
 PP    =NONE         RELWFN=NONE         LOCAL =NONE         NUMGRD=       F
 ISPHER=      -1     NOSYM =       0     MAXIT =      30     UNITS =ANGS    
 PLTORB=       F     MOLPLT=       F     AIMPAC=       F     FRIEND=        
 NPRINT=       7     IREST =       0     GEOM  =INPUT   
 NORMF =       0     NORMP =       0     ITOL  =      20     ICUT  =       9
 INTTYP=BEST         GRDTYP=BEST         QMTTOL= 1.0E-06

     $SYSTEM OPTIONS
     ---------------
  REPLICATED MEMORY=     1000000 WORDS (ON EVERY NODE).
 DISTRIBUTED MEMDDI=           0 MILLION WORDS IN AGGREGATE,
 MEMDDI DISTRIBUTED OVER   1 PROCESSORS IS           0 WORDS/PROCESSOR.
 TOTAL MEMORY REQUESTED ON EACH PROCESSOR=     1000000 WORDS.
 TIMLIM=      525600.00 MINUTES, OR     365.0 DAYS.
 PARALL= F  BALTYP=  DLB     KDIAG=    0  COREFL= F
 MXSEQ2=     300 MXSEQ3=     150  mem10=         0

          ----------------
          PROPERTIES INPUT
          ----------------

     MOMENTS            FIELD           POTENTIAL          DENSITY
 IEMOM =       1   IEFLD =       0   IEPOT =       0   IEDEN =       0
 WHERE =COMASS     WHERE =NUCLEI     WHERE =NUCLEI     WHERE =NUCLEI  
 OUTPUT=BOTH       OUTPUT=BOTH       OUTPUT=BOTH       OUTPUT=BOTH    
 IEMINT=       0   IEFINT=       0                     IEDINT=       0
                                                       MORB  =       0
          EXTRAPOLATION IN EFFECT
          SOSCF IN EFFECT
 ORBITAL PRINTING OPTION: NPREO=     1    52     2     1

     -------------------------------
     INTEGRAL TRANSFORMATION OPTIONS
     -------------------------------
     NWORD  =            0
     CUTOFF = 1.0E-09     MPTRAN =       0
     DIRTRF =       F     AOINTS =DUP     

          ----------------------
          INTEGRAL INPUT OPTIONS
          ----------------------
 NOPK  =       1 NORDER=       0 SCHWRZ=       T


 -----------------------------------------------
  STATISTICS ON AUTOMATIC COORDINATE GENERATION 
 -----------------------------------------------
  NUMBER OF USER SPECIFIED BONDS                             2
  NUMBER OF BONDS                                           17
  NUMBER OF ANGLES                                          40
  NUMBER OF TORSIONS                                        48
  NUMBER OF EXTRA COORD.                                     0
  NUMBER OF EXTRA COORD. FOR CONSTRAINTS                     0
  NUMBER OF CONSTRAINED COORD.                               2

  TOTAL NUMBER OF PRIMITIVES                               105
 -----------------------------------------------

   --- ENCODED Z MATRIX ---
 COORD  TYPE   I   J   K   L   M   N
    1      1    3  12
    2      1    9  12
    3      1    1   6
    4      1    1   8
    5      1    1   7
    6      1    1   2
    7      1    2   5
    8      1    2   3
    9      1    2   4
   10      1    3  13
   11      1    3  12
   12      1    3   9
   13      1    6  11
   14      1    6  10
   15      1    6   9
   16      1    9  14
   17      1    9  12
   18      2    1   6  11
   19      2    1   2   4
   20      2    1   6   9
   21      2    1   2   3
   22      2    1   2   5
   23      2    1   6  10
   24      2    2   3  12
   25      2    2   1   6
   26      2    2   1   7
   27      2    2   3  13
   28      2    2   3  12
   29      2    2   1   8
   30      2    2   3   9
   31      2    3   2   4
   32      2    3  12   9
   33      2    3   9  12
   34      2    3   2   5
   35      2    3  12   9
   36      2    3  12   9
   37      2    3  12   9
   38      2    3   9  14
   39      2    3   9   6
   40      2    3   9  12
   41      2    4   2   5
   42      2    6   1   8
   43      2    6   9  12
   44      2    6   9  12
   45      2    6   9  14
   46      2    6   1   7
   47      2    7   1   8
   48      2    9   3  12
   49      2    9   3  12
   50      2    9   3  13
   51      2    9   6  10
   52      2    9   6  11
   53      2   10   6  11
   54      2   12   3  13
   55      2   12   9  14
   56      2   12   3  13
   57      2   12   9  14
   58      3    1   6   9  12
   59      3    1   6   9  14
   60      3    1   6   9   3
   61      3    1   2   3   9
   62      3    1   2   3  12
   63      3    1   2   3  13
   64      3    2   3  12   9
   65      3    2   3   9  12
   66      3    2   3   9  14
   67      3    2   3   9   6
   68      3    2   1   6  11
   69      3    2   1   6  10
   70      3    2   1   6   9
   71      3    3   2   1   8
   72      3    3   2   1   6
   73      3    3   9   6  10
   74      3    3   9   6  11
   75      3    3  12   9  14
   76      3    3  12   9   6
   77      3    3   2   1   7
   78      3    4   2   3  12
   79      3    4   2   3   9
   80      3    4   2   1   7
   81      3    4   2   3  13
   82      3    4   2   1   8
   83      3    4   2   1   6
   84      3    5   2   3  12
   85      3    5   2   3   9
   86      3    5   2   1   7
   87      3    5   2   1   8
   88      3    5   2   1   6
   89      3    5   2   3  13
   90      3    6   9   3  12
   91      3    6   9   3  13
   92      3    7   1   6  10
   93      3    7   1   6  11
   94      3    7   1   6   9
   95      3    8   1   6   9
   96      3    8   1   6  10
   97      3    8   1   6  11
   98      3    9  12   3  13
   99      3   10   6   9  14
  100      3   10   6   9  12
  101      3   11   6   9  14
  102      3   11   6   9  12
  103      3   12   3   9  14
  104      3   12   9   3  13
  105      3   13   3   9  14

          INDEP./SYM. INTERNAL COORDINATES
          --------------------------------
 CRD  1=   1.0000 (  1)
 CRD  2=   1.0000 (  2)
 CRD  3=   0.4741 (  3)  0.2114 (  4)  0.4963 (  6)  0.1321 (  7)  0.1537 ( 14)
           0.1384 ( 18)  0.1060 ( 22) -0.1048 ( 25) -0.1340 ( 31)  0.1028 ( 39)
          -0.1048 ( 47) -0.1491 ( 52)  0.1015 ( 64)  0.1417 ( 70) -0.1299 ( 72)
          -0.1283 ( 76)  0.1001 ( 79)  0.1178 ( 81) -0.1177 ( 88)  0.1345 ( 94)
          -0.1077 (101)
 CRD  4=   0.4220 (  3) -0.4660 (  6) -0.1338 ( 10) -0.1665 ( 15)  0.1371 ( 18)
          -0.1114 ( 19) -0.2721 ( 29)  0.2652 ( 42) -0.1492 ( 52) -0.1170 ( 67)
          -0.1658 ( 68)  0.1131 ( 71) -0.1352 ( 80) -0.1419 ( 83)  0.1262 ( 87)
          -0.1660 ( 93)  0.1438 ( 95)  0.1496 ( 96) -0.1034 (102)
 CRD  5=  -0.2457 (  3)  0.1336 (  6)  0.1038 (  7)  0.1894 (  8)  0.1654 ( 18)
          -0.1827 ( 19)  0.1814 ( 22) -0.2428 ( 23)  0.2683 ( 26) -0.1264 ( 29)
           0.1846 ( 31) -0.3067 ( 46)  0.1623 ( 51) -0.1697 ( 52)  0.1261 ( 58)
           0.1428 ( 59)  0.1299 ( 60)  0.1856 ( 61)  0.1661 ( 62)  0.1212 ( 63)
          -0.1457 ( 67) -0.1461 ( 68) -0.1377 ( 69)  0.1327 ( 77) -0.1097 ( 82)
          -0.1798 ( 83)  0.1059 ( 86) -0.1124 ( 88)  0.1621 ( 94)
 CRD  6=   0.2078 (  3)  0.4530 (  8)  0.2323 ( 10)  0.1385 ( 12)  0.1078 ( 13)
           0.1417 ( 14)  0.5686 ( 15)  0.1230 ( 16)  0.1340 ( 31)  0.1430 ( 52)
           0.1002 ( 71) -0.1223 ( 80)  0.1061 ( 87)
 CRD  7=  -0.1195 (  3) -0.1782 (  5) -0.2001 (  6) -0.1426 (  9) -0.1409 ( 12)
           0.1273 ( 14)  0.1255 ( 15) -0.1011 ( 24)  0.1901 ( 25) -0.1534 ( 26)
           0.1624 ( 27) -0.1011 ( 28) -0.1403 ( 31)  0.2065 ( 34) -0.1691 ( 38)
          -0.1256 ( 42)  0.1288 ( 45)  0.1108 ( 47) -0.1813 ( 50)  0.1793 ( 51)
          -0.1359 ( 58) -0.1626 ( 60)  0.1100 ( 61)  0.1032 ( 62)  0.1127 ( 65)
           0.1052 ( 66)  0.1751 ( 70) -0.1730 ( 71) -0.1331 ( 72) -0.1405 ( 73)
          -0.1963 ( 75) -0.1650 ( 77)  0.1207 ( 84)  0.1275 ( 85)  0.1512 ( 95)
           0.1944 ( 98) -0.1138 (100)
 CRD  8=   0.1062 (  4) -0.1777 (  7) -0.3029 ( 12)  0.1347 ( 13) -0.1075 ( 14)
          -0.2607 ( 16)  0.1731 ( 18)  0.1036 ( 21)  0.2945 ( 27)  0.1077 ( 29)
          -0.1549 ( 30) -0.1694 ( 38)  0.1966 ( 39) -0.1538 ( 50) -0.1035 ( 54)
          -0.1035 ( 56)  0.1705 ( 58)  0.1623 ( 59) -0.1266 ( 63) -0.1620 ( 64)
          -0.1124 ( 66)  0.1367 ( 69)  0.1161 ( 71) -0.1187 ( 74) -0.1928 ( 75)
          -0.2086 ( 76) -0.1164 ( 81)  0.1315 ( 98)
 CRD  9=   0.2148 (  4) -0.1606 (  5) -0.4599 ( 10) -0.2429 ( 12) -0.1497 ( 14)
           0.1913 ( 15)  0.1736 ( 16)  0.1282 ( 19) -0.1051 ( 27)  0.1763 ( 30)
          -0.1414 ( 39)  0.1014 ( 42)  0.1174 ( 45)  0.1140 ( 52) -0.1086 ( 55)
          -0.1086 ( 57)  0.1017 ( 59) -0.1155 ( 62)  0.1850 ( 64)  0.1431 ( 68)
           0.1089 ( 69)  0.1497 ( 76)  0.1403 ( 79) -0.1191 ( 83) -0.1721 ( 88)
          -0.1076 ( 95)  0.1089 (101)  0.1243 (105)
 CRD 10=  -0.2316 (  4)  0.4795 (  5)  0.1708 (  9) -0.2085 ( 10)  0.1710 ( 13)
           0.1662 ( 18)  0.2057 ( 19) -0.1642 ( 22) -0.1887 ( 23)  0.1112 ( 26)
          -0.1125 ( 31)  0.1894 ( 34)  0.1130 ( 46)  0.1948 ( 51)  0.1237 ( 59)
          -0.1110 ( 62) -0.1023 ( 63) -0.1557 ( 68) -0.2061 ( 69)  0.1605 ( 83)
           0.1981 ( 88)
 CRD 11=   0.2724 (  7) -0.3603 (  9)  0.4281 ( 13) -0.2659 ( 14)  0.1995 ( 16)
          -0.1080 ( 19) -0.1475 ( 26)  0.1949 ( 29) -0.2041 ( 42)  0.1582 ( 46)
           0.1150 ( 60)  0.1015 ( 61) -0.1434 ( 67) -0.1669 ( 71) -0.1458 ( 77)
          -0.1108 ( 91) -0.1622 ( 94) -0.1801 ( 95)
 CRD 12=  -0.1570 (  4)  0.1241 (  5) -0.1294 (  7)  0.2382 (  9)  0.1735 ( 13)
           0.4119 ( 16)  0.1461 ( 23) -0.1868 ( 24)  0.2042 ( 27) -0.1868 ( 28)
          -0.1671 ( 43) -0.1671 ( 44)  0.1391 ( 45) -0.1922 ( 50)  0.1010 ( 52)
           0.2058 ( 65)  0.1651 ( 66)  0.1094 ( 72)  0.1361 ( 73)  0.1196 ( 74)
          -0.1095 ( 79) -0.1240 ( 85) -0.1866 ( 90) -0.1108 ( 91)  0.2020 ( 98)
           0.1037 ( 99)  0.1284 (100)  0.1119 (102)
 CRD 13=  -0.2091 (  4)  0.2921 (  7) -0.1599 (  9) -0.3877 ( 10) -0.1002 ( 12)
          -0.1546 ( 13)  0.2797 ( 14) -0.3289 ( 16) -0.1054 ( 18) -0.1583 ( 19)
           0.1475 ( 22) -0.1034 ( 54) -0.1034 ( 56)  0.1085 ( 74) -0.2068 ( 78)
          -0.1741 ( 79) -0.1576 ( 81) -0.1932 ( 84) -0.1604 ( 85) -0.1440 ( 89)
           0.1056 (100)  0.1274 (101)  0.1386 (102)
 CRD 14=  -0.4434 (  9)  0.1680 ( 13) -0.1162 ( 18)  0.1105 ( 19)  0.1223 ( 23)
           0.1565 ( 26) -0.1256 ( 29) -0.1104 ( 31)  0.1738 ( 34)  0.1148 ( 42)
          -0.1284 ( 46) -0.1296 ( 51)  0.1089 ( 52)  0.1180 ( 73)  0.1402 ( 74)
           0.1220 ( 78)  0.1355 ( 79)  0.1401 ( 80)  0.1142 ( 81)  0.1244 ( 82)
           0.2224 ( 86)  0.2068 ( 87)  0.1371 ( 88)  0.2174 ( 92)  0.1890 ( 93)
           0.1204 ( 94)  0.1818 ( 96)  0.1534 ( 97)  0.1183 ( 99)  0.1371 (100)
           0.1405 (101)  0.1593 (102)
 CRD 15=   0.4233 (  4)  0.4488 (  5) -0.3846 (  7) -0.3894 (  9) -0.2418 ( 13)
           0.1081 ( 22)  0.1008 ( 31) -0.1509 ( 41)  0.1652 ( 47) -0.1755 ( 82)
          -0.1088 ( 84) -0.1062 ( 85) -0.1414 ( 92)
 CRD 16=  -0.1226 (  4) -0.1974 (  5) -0.4128 (  7) -0.1625 (  9)  0.4063 ( 13)
           0.5196 ( 14) -0.1133 ( 23) -0.1164 ( 41) -0.1258 ( 52)  0.1902 ( 53)
          -0.1285 ( 68) -0.1166 ( 73) -0.1342 ( 80) -0.1058 ( 83) -0.1384 ( 93)
          -0.1979 ( 97) -0.1202 ( 99) -0.1309 (100)
 CRD 17=  -0.1028 (  3)  0.4622 (  4)  0.3174 (  5)  0.3249 (  7)  0.2340 (  9)
           0.3275 ( 13)  0.3590 ( 14)  0.1231 ( 41)  0.1721 ( 47)  0.1454 ( 53)
           0.1665 ( 80) -0.1204 ( 93)  0.1416 ( 96)
 CRD 18=  -0.1121 (  5) -0.2940 ( 10) -0.2486 ( 13)  0.2267 ( 14)  0.5445 ( 16)
           0.1516 ( 27) -0.2290 ( 45) -0.1216 ( 54)  0.1415 ( 55) -0.1216 ( 56)
           0.1415 ( 57) -0.1975 ( 66) -0.1094 ( 93) -0.1094 ( 96) -0.1202 ( 97)
          -0.1264 (103) -0.1265 (104) -0.2529 (105)
 CRD 19=   0.1150 (  4) -0.1442 (  5)  0.1670 (  7) -0.1973 (  9) -0.1225 ( 10)
           0.1999 ( 13) -0.1658 ( 14) -0.1098 ( 23)  0.1278 ( 27)  0.1039 ( 42)
          -0.1086 ( 50) -0.1042 ( 58) -0.1148 ( 59) -0.1296 ( 61)  0.1414 ( 67)
           0.1504 ( 71) -0.1888 ( 73) -0.1641 ( 74)  0.1394 ( 77) -0.1333 ( 78)
          -0.1641 ( 79)  0.1717 ( 80) -0.1004 ( 81)  0.1828 ( 82)  0.1021 ( 83)
          -0.1720 ( 84) -0.2027 ( 85)  0.1745 ( 86)  0.1856 ( 87)  0.1049 ( 88)
          -0.1391 ( 89)  0.1001 ( 98) -0.2105 ( 99) -0.1999 (100) -0.1858 (101)
          -0.1752 (102)
 CRD 20=  -0.2449 (  4)  0.3087 (  5) -0.1300 ( 10)  0.1441 ( 13) -0.1136 ( 14)
           0.1475 ( 16) -0.1444 ( 45)  0.1574 ( 68)  0.1869 ( 69)  0.1183 ( 70)
          -0.1188 ( 71) -0.1207 ( 73) -0.1017 ( 74) -0.1148 ( 77) -0.1648 ( 80)
          -0.1687 ( 82) -0.1368 ( 83) -0.1930 ( 86) -0.1969 ( 87) -0.1650 ( 88)
           0.2208 ( 92)  0.1914 ( 93)  0.1522 ( 94)  0.1668 ( 95)  0.2354 ( 96)
           0.2059 ( 97) -0.1184 ( 99) -0.1140 (100) -0.1175 (105)
 CRD 21=  -0.1596 (  4)  0.2084 (  5)  0.2512 (  7) -0.2469 (  9)  0.3755 ( 10)
          -0.2006 ( 12) -0.2158 ( 13)  0.1440 ( 14)  0.3175 ( 16) -0.1233 ( 27)
           0.1249 ( 54)  0.1249 ( 56)  0.1264 ( 59) -0.1061 ( 62) -0.1973 ( 63)
          -0.1219 ( 73) -0.1338 ( 81) -0.1810 ( 89)  0.2331 ( 91)  0.1187 (101)
           0.1799 (104)  0.1072 (105)
 CRD 22=  -0.2245 (  4)  0.1030 (  5)  0.2666 ( 10)  0.1241 ( 19)  0.1708 ( 27)
          -0.1198 ( 31) -0.1520 ( 34)  0.1337 ( 45)  0.1128 ( 47) -0.1719 ( 50)
          -0.1138 ( 51) -0.1024 ( 52) -0.2159 ( 54) -0.2016 ( 55) -0.2159 ( 56)
          -0.2016 ( 57)  0.1304 ( 66)  0.1007 ( 75)  0.1768 ( 80)  0.1619 ( 81)
           0.1100 ( 82) -0.1046 ( 87) -0.1303 ( 88) -0.1306 ( 91) -0.2072 ( 93)
          -0.1257 ( 94)  0.1020 ( 98)  0.2230 (103) -0.2206 (104)
 CRD 23=   0.1517 (  7)  0.1434 ( 10) -0.2205 ( 14) -0.1674 ( 18)  0.1247 ( 19)
           0.1160 ( 22) -0.1060 ( 23) -0.1146 ( 26) -0.1870 ( 29) -0.1898 ( 41)
           0.1503 ( 42)  0.1569 ( 46)  0.1231 ( 51)  0.1156 ( 53) -0.1055 ( 54)
          -0.1055 ( 56)  0.1170 ( 63)  0.1482 ( 74) -0.1425 ( 77)  0.1020 ( 79)
          -0.2079 ( 80)  0.2463 ( 81) -0.1446 ( 84) -0.1254 ( 85) -0.1329 ( 86)
          -0.1120 ( 91) -0.1538 ( 92) -0.1156 ( 93)  0.1478 ( 95)  0.2651 (101)
           0.1582 (102) -0.1109 (103) -0.1327 (104) -0.2436 (105)
 CRD 24=  -0.1531 (  3) -0.1866 (  4)  0.3111 (  8)  0.1005 (  9) -0.1199 ( 10)
          -0.2477 ( 12)  0.2941 ( 15)  0.1399 ( 18)  0.1502 ( 23) -0.1070 ( 26)
          -0.1341 ( 27) -0.1034 ( 41)  0.1795 ( 47)  0.2063 ( 50) -0.1265 ( 51)
          -0.1710 ( 52) -0.1383 ( 74)  0.1090 ( 80)  0.1289 ( 81) -0.1335 ( 84)
          -0.1334 ( 85)  0.1395 ( 86) -0.2165 ( 93)  0.1333 ( 96) -0.1920 ( 98)
           0.1003 ( 99)  0.1460 (100) -0.1351 (101)
 CRD 25=  -0.3009 (  3)  0.3537 (  6)  0.1134 (  7) -0.2006 (  8) -0.1386 ( 10)
          -0.1259 ( 14)  0.1109 ( 15) -0.1007 ( 22) -0.1526 ( 26) -0.1204 ( 29)
           0.1497 ( 31)  0.1381 ( 42)  0.1574 ( 46) -0.1411 ( 52)  0.1071 ( 53)
           0.1045 ( 66) -0.1096 ( 68)  0.1494 ( 71) -0.2229 ( 80) -0.1016 ( 81)
          -0.1023 ( 83)  0.1587 ( 84)  0.1127 ( 85)  0.1744 ( 87)  0.1296 ( 91)
          -0.2193 ( 93)  0.1065 ( 95)  0.1674 ( 96)  0.1021 (103)  0.1082 (104)
           0.2103 (105)
 CRD 26=  -0.2549 (  5) -0.1988 (  7)  0.1705 ( 13) -0.1363 ( 14)  0.1036 ( 22)
           0.1321 ( 24)  0.1321 ( 28) -0.1655 ( 29) -0.2110 ( 31)  0.1630 ( 47)
           0.1339 ( 51) -0.1753 ( 63) -0.1442 ( 65) -0.1210 ( 66) -0.1278 ( 69)
          -0.1908 ( 71)  0.1321 ( 80) -0.2135 ( 81)  0.1710 ( 83) -0.1709 ( 87)
          -0.2867 ( 89)  0.1980 ( 91) -0.1082 ( 92)  0.2392 ( 95)  0.1329 ( 97)
           0.1036 ( 98)  0.1107 (104)  0.1339 (105)
 CRD 27=  -0.1768 (  4)  0.1546 (  5)  0.1833 (  8) -0.1698 (  9) -0.1933 ( 10)
           0.1128 ( 12)  0.1082 ( 15) -0.2239 ( 16) -0.1079 ( 23)  0.1109 ( 27)
          -0.2081 ( 34)  0.1283 ( 38)  0.1281 ( 41)  0.1623 ( 42) -0.1360 ( 43)
          -0.1360 ( 44)  0.1220 ( 52)  0.1554 ( 55)  0.1554 ( 57)  0.1085 ( 62)
           0.1455 ( 71)  0.1162 ( 74)  0.1658 ( 78)  0.1181 ( 79)  0.1124 ( 80)
           0.1916 ( 82)  0.1225 ( 84) -0.1288 ( 86) -0.2101 ( 88) -0.1433 ( 90)
          -0.1904 ( 92) -0.1628 ( 94)  0.1242 ( 98) -0.1308 ( 99) -0.1271 (103)
           0.1451 (104)
 CRD 28=  -0.2564 (  3)  0.1592 (  4) -0.1291 (  6)  0.1375 (  7)  0.1038 ( 10)
          -0.2461 ( 12)  0.2276 ( 14) -0.1046 ( 15)  0.1022 ( 18)  0.1104 ( 19)
           0.1735 ( 38) -0.1220 ( 41)  0.1089 ( 46)  0.1014 ( 52) -0.2492 ( 53)
           0.1126 ( 58) -0.1373 ( 59)  0.1148 ( 68) -0.1334 ( 69)  0.1132 ( 73)
           0.2726 ( 75) -0.1020 ( 77)  0.1160 ( 78)  0.1526 ( 79) -0.1615 ( 80)
           0.1053 ( 81) -0.1246 ( 86)  0.1877 ( 93)  0.1908 ( 97) -0.1012 ( 99)
           0.1487 (100) -0.3060 (101)
 CRD 29=  -0.1322 (  7)  0.1492 (  8)  0.1778 (  9) -0.1645 ( 10) -0.2007 ( 13)
           0.1322 ( 14) -0.2217 ( 15)  0.1680 ( 16)  0.1618 ( 22) -0.1825 ( 23)
          -0.1088 ( 26) -0.1519 ( 30) -0.1088 ( 31) -0.1348 ( 38)  0.1355 ( 39)
           0.1388 ( 45)  0.1880 ( 50)  0.1237 ( 52) -0.1500 ( 55) -0.1500 ( 57)
           0.1022 ( 58)  0.1172 ( 62) -0.1748 ( 64)  0.1245 ( 68) -0.1742 ( 73)
          -0.1292 ( 75) -0.1483 ( 76)  0.1669 ( 82)  0.1082 ( 83) -0.1552 ( 85)
           0.1320 ( 87) -0.1213 ( 89) -0.1089 ( 94)  0.1263 ( 96)  0.1518 ( 97)
          -0.1893 ( 98) -0.1758 ( 99) -0.1344 (100)  0.1192 (103)
 CRD 30=   0.1921 (  3) -0.2294 (  4)  0.3168 (  6) -0.1106 (  8)  0.1083 ( 10)
          -0.1848 ( 12) -0.1304 ( 15) -0.1022 ( 19) -0.1399 ( 22) -0.1479 ( 23)
          -0.1762 ( 25) -0.1026 ( 26)  0.1068 ( 34)  0.2365 ( 47)  0.1028 ( 51)
           0.1041 ( 64)  0.1532 ( 68)  0.1116 ( 75)  0.1337 ( 77) -0.1663 ( 78)
          -0.1057 ( 79) -0.1538 ( 82) -0.1126 ( 83)  0.1916 ( 86)  0.1567 ( 89)
          -0.2599 ( 92) -0.1792 ( 94)  0.1203 ( 95)  0.2361 ( 97) -0.1399 ( 99)
 CRD 31=   0.1020 (  3) -0.1012 (  6) -0.3199 (  8)  0.2045 (  9) -0.1694 ( 13)
           0.2368 ( 15) -0.1192 ( 16)  0.1624 ( 21)  0.1029 ( 38) -0.1994 ( 41)
          -0.1039 ( 43) -0.1039 ( 44) -0.1522 ( 50)  0.1029 ( 53)  0.1174 ( 60)
          -0.1544 ( 66) -0.1659 ( 67)  0.1723 ( 69)  0.1001 ( 78)  0.1286 ( 79)
          -0.1380 ( 82) -0.1063 ( 84)  0.2267 ( 86)  0.1245 ( 87)  0.1963 ( 88)
          -0.2316 ( 89)  0.1064 ( 92)  0.1405 ( 96)  0.1586 ( 98) -0.1114 ( 99)
          -0.1023 (100)
 CRD 32=  -0.2311 (  3)  0.1798 (  6) -0.2545 (  7)  0.1416 ( 10)  0.1026 ( 14)
           0.1406 ( 15) -0.1454 ( 19) -0.1573 ( 21) -0.1011 ( 26) -0.1132 ( 27)
           0.1800 ( 30)  0.1127 ( 34) -0.1228 ( 39)  0.1619 ( 41)  0.1144 ( 46)
          -0.1001 ( 51)  0.1195 ( 61)  0.1384 ( 63)  0.1857 ( 64)  0.1137 ( 76)
          -0.2007 ( 77) -0.2577 ( 78) -0.1657 ( 79) -0.1467 ( 81)  0.2860 ( 82)
           0.1768 ( 83) -0.1185 ( 86)  0.1213 ( 87) -0.1148 (102) -0.1159 (105)
 CRD 33=   0.1433 (  3)  0.1166 (  4) -0.2559 ( 12) -0.1340 ( 13) -0.1392 ( 14)
           0.1781 ( 15) -0.2265 ( 20)  0.1049 ( 26)  0.1216 ( 38)  0.1162 ( 39)
          -0.1238 ( 42)  0.2113 ( 53)  0.1187 ( 58) -0.1825 ( 59) -0.1908 ( 68)
           0.1071 ( 72) -0.1230 ( 73)  0.1681 ( 74)  0.1948 ( 75) -0.1540 ( 76)
           0.1393 ( 83) -0.1261 ( 86) -0.1185 ( 87)  0.1038 ( 89)  0.2253 ( 92)
           0.1278 ( 96) -0.1177 ( 97) -0.3497 ( 99)  0.2427 (102)
 CRD 34=   0.2352 (  5)  0.1377 (  9) -0.1371 ( 12)  0.1215 ( 13) -0.1506 ( 14)
          -0.1819 ( 18) -0.1283 ( 19) -0.1012 ( 26)  0.1497 ( 29)  0.1016 ( 34)
          -0.1409 ( 46) -0.1179 ( 47)  0.1233 ( 51) -0.2514 ( 59) -0.1397 ( 60)
           0.1409 ( 61)  0.1004 ( 62)  0.2228 ( 70) -0.2087 ( 72)  0.1006 ( 74)
           0.1198 ( 75)  0.1565 ( 82) -0.1203 ( 83)  0.1188 ( 86)  0.2453 ( 87)
           0.1017 ( 94) -0.2757 ( 96) -0.2323 ( 97)  0.1604 (102)
 CRD 35=  -0.1052 (  6) -0.1433 (  7) -0.5293 (  8) -0.1040 (  9)  0.3770 ( 15)
          -0.1033 ( 19) -0.1619 ( 20)  0.2312 ( 21) -0.1324 ( 27) -0.2461 ( 34)
           0.1329 ( 41)  0.1863 ( 50)  0.2572 ( 51)  0.1051 ( 70)  0.1161 ( 71)
           0.1043 ( 77)  0.1140 ( 94)  0.1247 ( 95) -0.1895 ( 98)
 CRD 36=   0.1244 (  4)  0.1504 (  8) -0.1060 ( 14) -0.1131 ( 18)  0.3619 ( 20)
           0.3193 ( 21) -0.1638 ( 22) -0.1683 ( 23) -0.3699 ( 25)  0.1300 ( 26)
           0.1219 ( 27)  0.1240 ( 29) -0.1194 ( 30) -0.2009 ( 31) -0.1506 ( 39)
           0.1143 ( 41)  0.1251 ( 42)  0.1069 ( 45)  0.1318 ( 46) -0.1349 ( 47)
          -0.1959 ( 52)  0.1321 ( 53) -0.1030 ( 64) -0.1244 ( 71)  0.1082 ( 75)
           0.1379 ( 76) -0.1185 ( 77)  0.1034 ( 94)  0.1106 ( 95)

 THE DETERMINANT OF THE G MATRIX IS 10**(    -9)


                     --------------------
                     INTERNAL COORDINATES
                     --------------------

                 - - ATOMS - -         COORDINATE      COORDINATE
 NO.   TYPE    I  J  K  L  M  N        (BOHR,RAD)       (ANG,DEG)
 ----------------------------------------------------------------
   1 STRETCH   3 12                     3.7537483       1.9863982
   2 STRETCH   9 12                     3.7299910       1.9738264
   3 STRETCH   1  6                     2.8492908       1.5077799
   4 STRETCH   1  8                     2.0986617       1.1105640
   5 STRETCH   1  7                     2.1069895       1.1149709
   6 STRETCH   1  2                     2.8611639       1.5140629
   7 STRETCH   2  5                     2.0986619       1.1105641
   8 STRETCH   2  3                     2.8844994       1.5264115
   9 STRETCH   2  4                     2.1023186       1.1124992
  10 STRETCH   3 13                     2.0976862       1.1100478
  11 STRETCH   3 12                     3.7537483       1.9863982
  12 STRETCH   3  9                     2.7721856       1.4669776
  13 STRETCH   6 11                     2.1043232       1.1135599
  14 STRETCH   6 10                     2.0982459       1.1103440
  15 STRETCH   6  9                     2.8979627       1.5335359
  16 STRETCH   9 14                     2.0988757       1.1106773
  17 STRETCH   9 12                     3.7299910       1.9738264
  18 BEND      1  6 11                  1.8933116     108.4787623
  19 BEND      1  2  4                  1.9532123     111.9108191
  20 BEND      1  6  9                  1.8054791     103.4463331
  21 BEND      1  2  3                  1.7807832     102.0313623
  22 BEND      1  2  5                  1.9207592     110.0513977
  23 BEND      1  6 10                  1.9771945     113.2849017
  24 BEND      2  3 12                  1.9858814     113.7826221
  25 BEND      2  1  6                  1.7783567     101.8923347
  26 BEND      2  1  7                  1.8915648     108.3786780
  27 BEND      2  3 13                  2.1165111     121.2671557
  28 BEND      2  3 12                  1.9858814     113.7826221
  29 BEND      2  1  8                  2.0002434     114.6055026
  30 BEND      2  3  9                  1.8915454     108.3775668
  31 BEND      3  2  4                  1.9148354     109.7119869
  32 BEND      3 12  9                  0.7589140      43.4825674
  33 BEND      3  9 12                  1.1992997      68.7148113
  34 BEND      3  2  5                  1.9765260     113.2465995
  35 BEND      3 12  9                  0.7589140      43.4825674
  36 BEND      3 12  9                  0.7589140      43.4825674
  37 BEND      3 12  9                  0.7589140      43.4825674
  38 BEND      3  9 14                  1.8028330     103.2947216
  39 BEND      3  9  6                  1.8333295     105.0420426
  40 BEND      3  9 12                  1.1992997      68.7148113
  41 BEND      4  2  5                  1.9151707     109.7312007
  42 BEND      6  1  8                  2.0074087     115.0160448
  43 BEND      6  9 12                  1.9475156     111.5844258
  44 BEND      6  9 12                  1.9475156     111.5844258
  45 BEND      6  9 14                  2.0614682     118.1134268
  46 BEND      6  1  7                  1.8812163     107.7857535
  47 BEND      7  1  8                  1.8976429     108.7269279
  48 BEND      9  3 12                  1.1833790      67.8026213
  49 BEND      9  3 12                  1.1833790      67.8026213
  50 BEND      9  3 13                  2.2526373     129.0666079
  51 BEND      9  6 10                  1.9805620     113.4778437
  52 BEND      9  6 11                  1.9130086     109.6073217
  53 BEND     10  6 11                  1.8914750     108.3735321
  54 BEND     12  3 13                  1.7370510      99.5256897
  55 BEND     12  9 14                  2.2659954     129.8319745
  56 BEND     12  3 13                  1.7370510      99.5256897
  57 BEND     12  9 14                  2.2659954     129.8319745
  58 TORSION   1  6  9 12               1.7399548      99.6920645
  59 TORSION   1  6  9 14              -1.5254667     -87.4028063
  60 TORSION   1  6  9  3               0.4716724      27.0248360
  61 TORSION   1  2  3  9              -0.4337552     -24.8523413
  62 TORSION   1  2  3 12              -1.7117471     -98.0758843
  63 TORSION   1  2  3 13               2.5009271     143.2925694
  64 TORSION   2  3 12  9               1.7642955     101.0866836
  65 TORSION   2  3  9 12              -1.9001113    -108.8683555
  66 TORSION   2  3  9 14               2.1507721     123.2301668
  67 TORSION   2  3  9  6              -0.0203054      -1.1634142
  68 TORSION   2  1  6 11               1.2900677      73.9154336
  69 TORSION   2  1  6 10              -2.8922054    -165.7111618
  70 TORSION   2  1  6  9              -0.7404356     -42.4238369
  71 TORSION   3  2  1  8               2.8944432     165.8393817
  72 TORSION   3  2  1  6               0.7150111      40.9671192
  73 TORSION   3  9  6 10               2.6212192     150.1847980
  74 TORSION   3  9  6 11              -1.5448533     -88.5135722
  75 TORSION   3 12  9 14               1.5672158      89.7948534
  76 TORSION   3 12  9  6              -1.7167198     -98.3608012
  77 TORSION   3  2  1  7              -1.2661071     -72.5425933
  78 TORSION   4  2  3 12               0.3615924      20.7177169
  79 TORSION   4  2  3  9               1.6395843      93.9412598
  80 TORSION   4  2  1  7               2.9711649     170.2352110
  81 TORSION   4  2  3 13              -1.7089187     -97.9138294
  82 TORSION   4  2  1  8               0.8485300      48.6171860
  83 TORSION   4  2  1  6              -1.3309022     -76.2550765
  84 TORSION   5  2  3 12               2.5078456     143.6889688
  85 TORSION   5  2  3  9              -2.4973478    -143.0874883
  86 TORSION   5  2  1  7               0.8368340      47.9470538
  87 TORSION   5  2  1  8              -1.2858010     -73.6709712
  88 TORSION   5  2  1  6               2.8179522     161.4567663
  89 TORSION   5  2  3 13               0.4373345      25.0574225
  90 TORSION   6  9  3 12               1.8798058     107.7049414
  91 TORSION   6  9  3 13              -2.9337578    -168.0919382
  92 TORSION   7  1  6 10              -0.9034008     -51.7610532
  93 TORSION   7  1  6 11              -3.0043130    -172.1344578
  94 TORSION   7  1  6  9               1.2483689      71.5262717
  95 TORSION   8  1  6  9              -2.9150902    -167.0223675
  96 TORSION   8  1  6 10               1.2163253      69.6903076
  97 TORSION   8  1  6 11              -0.8845869     -50.6830969
  98 TORSION   9 12  3 13              -2.2417274    -128.4415167
  99 TORSION  10  6  9 14               0.6240801      35.7571557
 100 TORSION  10  6  9 12              -2.3936837    -137.1479735
 101 TORSION  11  6  9 14               2.7411929     157.0587855
 102 TORSION  11  6  9 12              -0.2765709     -15.8463437
 103 TORSION  12  3  9 14              -2.2323019    -127.9014777
 104 TORSION  12  9  3 13               1.4696217      84.2031204
 105 TORSION  13  3  9 14              -0.7626802     -43.6983572

     ------------------------------------------
     THE POINT GROUP IS C1 , NAXIS= 0, ORDER= 1
     ------------------------------------------

     DIMENSIONS OF THE SYMMETRY SUBSPACES ARE
 A   =   52

 ..... DONE SETTING UP THE RUN .....
 STEP CPU TIME =     0.06 TOTAL CPU TIME =          0.1 (      0.0 MIN)
 TOTAL WALL CLOCK TIME=          0.1 SECONDS, CPU UTILIZATION IS    60.00%


          -----------------------------
          STATIONARY POINT LOCATION RUN
          -----------------------------


           ** GEOMETRY CONSTRAINTS ARE BEING APPLIED. **

          TRANSFORMING DISPLACEMENT FROM INTERNALS TO CARTESIANS
          THE ROOT MEAN SQUARE ERROR IN ITERATION   1 IS   0.00019709
          THE ROOT MEAN SQUARE ERROR IN ITERATION   2 IS   0.00000000
          THE ROOT MEAN SQUARE ERROR IN ITERATION   3 IS   0.00000000
 WARNING! THE RADIUS IN CARTESIANS IS    0.10534
 OBTAINING INITIAL HESSIAN, HESS=CALC    

     ---------------------------------
     HESSIAN MATRIX CONTROL PARAMETERS
     ---------------------------------
     METHOD=ANALYTIC   NVIB  =       2   VIBSIZ= 0.01000
     RDHESS=       F   PURIFY=       F   PRTIFC=       F
     VIBANL=       F   DECOMP=       F   PROJCT=       F
     SCLFAC= 1.00000   PRTSCN=       F   NPRT  =       0
     PULCOR=       F   NPUN  =       0   REDOVB=       T
     HSSTYP=GENERAL 
 Old integral subroutine is used

     ------------------------------
     CPHF RESPONSE SOLUTION OPTIONS
     ------------------------------
     POLAR  =       F     NWORD  =       0
     CPHF   =AO      

          ********************
          1 ELECTRON INTEGRALS
          ********************
 ...... END OF ONE-ELECTRON INTEGRALS ......
 STEP CPU TIME =     0.04 TOTAL CPU TIME =          0.1 (      0.0 MIN)
 TOTAL WALL CLOCK TIME=          0.1 SECONDS, CPU UTILIZATION IS    71.43%

          -------------
          GUESS OPTIONS
          -------------
          GUESS =HUCKEL            NORB  =       0          NORDER=       0
          MIX   =       F          PRTMO =       F          PUNMO =       F
          TOLZ  = 1.0E-08          TOLE  = 1.0E-05
          SYMDEN=       F          PURIFY=       F

 INITIAL GUESS ORBITALS GENERATED BY HUCKEL   ROUTINE.
 HUCKEL GUESS REQUIRES     39958 WORDS.

 SYMMETRIES FOR INITIAL GUESS ORBITALS FOLLOW.   BOTH SET(S).
    37 ORBITALS ARE OCCUPIED (   19 CORE ORBITALS).
    20=A       21=A       22=A       23=A       24=A       25=A       26=A   
    27=A       28=A       29=A       30=A       31=A       32=A       33=A   
    34=A       35=A       36=A       37=A       38=A       39=A       40=A   
    41=A       42=A       43=A       44=A       45=A       46=A       47=A   
 ...... END OF INITIAL ORBITAL SELECTION ......
 STEP CPU TIME =     0.02 TOTAL CPU TIME =          0.1 (      0.0 MIN)
 TOTAL WALL CLOCK TIME=          0.2 SECONDS, CPU UTILIZATION IS    75.00%

                    ----------------------
                    AO INTEGRAL TECHNOLOGY
                    ----------------------
     S,P,L SHELL ROTATED AXIS INTEGRALS, REPROGRAMMED BY
        KAZUYA ISHIMURA (IMS) AND JOSE SIERRA (SYNSTAR).
     S,P,D,L SHELL ROTATED AXIS INTEGRALS PROGRAMMED BY
        KAZUYA ISHIMURA (INSTITUTE FOR MOLECULAR SCIENCE).
     S,P,D,F,G SHELL TO TOTAL QUARTET ANGULAR MOMENTUM SUM 5,
        ERIC PROGRAM BY GRAHAM FLETCHER (ELORET AND NASA ADVANCED
        SUPERCOMPUTING DIVISION, AMES RESEARCH CENTER).
     S,P,D,F,G,L SHELL GENERAL RYS QUADRATURE PROGRAMMED BY
        MICHEL DUPUIS (PACIFIC NORTHWEST NATIONAL LABORATORY).

          --------------------
          2 ELECTRON INTEGRALS
          --------------------

 THE -PK- OPTION IS OFF, THE INTEGRALS ARE NOT IN SUPERMATRIX FORM.
 STORING   15000 INTEGRALS/RECORD ON DISK, USING 12 BYTES/INTEGRAL.
 TWO ELECTRON INTEGRAL EVALUATION REQUIRES   90672 WORDS OF MEMORY.
 SCHWARZ INEQUALITY OVERHEAD:      1322 INTEGRALS, T=        0.01
 II,JST,KST,LST =  1  1  1  1 NREC =         1 INTLOC =    1
 II,JST,KST,LST =  2  1  1  1 NREC =         1 INTLOC =    2
 II,JST,KST,LST =  3  1  1  1 NREC =         1 INTLOC =   34
 II,JST,KST,LST =  4  1  1  1 NREC =         1 INTLOC =  142
 II,JST,KST,LST =  5  1  1  1 NREC =         1 INTLOC = 1362
 II,JST,KST,LST =  6  1  1  1 NREC =         1 INTLOC = 1939
 II,JST,KST,LST =  7  1  1  1 NREC =         1 INTLOC = 6811
 II,JST,KST,LST =  8  1  1  1 NREC =         1 INTLOC = 8846
 II,JST,KST,LST =  9  1  1  1 NREC =         1 INTLOC =11285
 II,JST,KST,LST = 10  1  1  1 NREC =         1 INTLOC =13762
 II,JST,KST,LST = 11  1  1  1 NREC =         3 INTLOC =  743
 II,JST,KST,LST = 12  1  1  1 NREC =         3 INTLOC = 6748
 II,JST,KST,LST = 13  1  1  1 NREC =         3 INTLOC =13570
 II,JST,KST,LST = 14  1  1  1 NREC =         4 INTLOC = 5352
 II,JST,KST,LST = 15  1  1  1 NREC =         7 INTLOC = 1314
 II,JST,KST,LST = 16  1  1  1 NREC =         7 INTLOC =14595
 II,JST,KST,LST = 17  1  1  1 NREC =         8 INTLOC =14287
 II,JST,KST,LST = 18  1  1  1 NREC =         9 INTLOC =10759
 II,JST,KST,LST = 19  1  1  1 NREC =        13 INTLOC = 7940
 II,JST,KST,LST = 20  1  1  1 NREC =        19 INTLOC = 3735
 II,JST,KST,LST = 21  1  1  1 NREC =        31 INTLOC = 4361
 II,JST,KST,LST = 22  1  1  1 NREC =        44 INTLOC = 3251
 II,JST,KST,LST = 23  1  1  1 NREC =        48 INTLOC = 3278
 SCHWARZ INEQUALITY TEST SKIPPED        7474 INTEGRAL BLOCKS.
 TOTAL NUMBER OF NONZERO TWO-ELECTRON INTEGRALS =              772228
         52 INTEGRAL RECORDS WERE STORED ON DISK FILE  8.
  ...... END OF TWO-ELECTRON INTEGRALS .....
 STEP CPU TIME =     0.16 TOTAL CPU TIME =          0.3 (      0.0 MIN)
 TOTAL WALL CLOCK TIME=          0.3 SECONDS, CPU UTILIZATION IS    90.32%

          --------------------------
                 RHF SCF CALCULATION
          --------------------------

     NUCLEAR ENERGY =       434.9421723137
     MAXIT =   30     NPUNCH=    2
     EXTRAP=T  DAMP=F  SHIFT=F  RSTRCT=F  DIIS=F  DEM=F  SOSCF=T
     DENSITY MATRIX CONV=  1.00E-05
     SOSCF WILL OPTIMIZE     555 ORBITAL ROTATIONS, SOGTOL=   0.250
     MEMORY REQUIRED FOR RHF ITERS=     51876 WORDS.

 ITER EX DEM     TOTAL ENERGY        E CHANGE  DENSITY CHANGE     ORB. GRAD
   1  0  0    -2736.6311030690 -2736.6311030690  12.330008850   0.000000000
          ---------------START SECOND ORDER SCF---------------
   2  1  0    -2737.1869826978    -0.5558796288   0.192977870   0.033446957
   3  2  0    -2737.2012510483    -0.0142683505   0.086292485   0.008203847
   4  3  0    -2737.2038550337    -0.0026039854   0.037365320   0.005125110
   5  4  0    -2737.2044006875    -0.0005456538   0.035325453   0.002248373
   6  5  0    -2737.2047310004    -0.0003303129   0.009266953   0.001289304
   7  6  0    -2737.2047724095    -0.0000414092   0.005551828   0.000626404
   8  7  0    -2737.2047827397    -0.0000103302   0.000941877   0.000144854
   9  8  0    -2737.2047836538    -0.0000009141   0.000163369   0.000063071
  10  9  0    -2737.2047837091    -0.0000000552   0.000092891   0.000023388
  11 10  0    -2737.2047837159    -0.0000000069   0.000017126   0.000004318
  12 11  0    -2737.2047837165    -0.0000000005   0.000004276   0.000000714
  13 12  0    -2737.2047837165    -0.0000000000   0.000000649   0.000000146

          -----------------
          DENSITY CONVERGED
          -----------------
     TIME TO FORM FOCK OPERATORS=       0.2 SECONDS (       0.0 SEC/ITER)
     TIME TO SOLVE SCF EQUATIONS=       0.0 SECONDS (       0.0 SEC/ITER)

 FINAL RHF ENERGY IS    -2737.2047837165 AFTER  13 ITERATIONS

          ------------
          EIGENVECTORS
          ------------

                      1          2          3          4          5
                 -484.5504   -63.4620   -57.5927   -57.5905   -57.5902
                     A          A          A          A          A   
    1  C  1  S   -0.000000  -0.000005  -0.000001   0.000001   0.000000
    2  C  1  S    0.000000   0.000033   0.000005  -0.000001   0.000000
    3  C  1  X    0.000000   0.000005   0.000000  -0.000001   0.000001
    4  C  1  Y   -0.000000  -0.000007  -0.000001   0.000005   0.000001
    5  C  1  Z    0.000000   0.000042   0.000002  -0.000002  -0.000000
    6  C  2  S   -0.000000  -0.000006   0.000000   0.000001   0.000001
    7  C  2  S    0.000001   0.000221   0.000011  -0.000026  -0.000020
    8  C  2  X    0.000001   0.000105   0.000005  -0.000006  -0.000004
    9  C  2  Y   -0.000000  -0.000009  -0.000005   0.000001   0.000003
   10  C  2  Z    0.000001   0.000159   0.000013   0.000009  -0.000006
   11  C  3  S    0.000002   0.000373   0.000038   0.000000  -0.000019
   12  C  3  S   -0.000014  -0.002315  -0.000258  -0.000001   0.000135
   13  C  3  X    0.000001   0.000283   0.000051   0.000008  -0.000001
   14  C  3  Y    0.000008   0.001487   0.000162   0.000072  -0.000061
   15  C  3  Z   -0.000011  -0.002023  -0.000210   0.000029   0.000111
   16  H  4  S   -0.000003  -0.000451  -0.000021   0.000034   0.000030
   17  H  5  S   -0.000000  -0.000047  -0.000003   0.000007   0.000002
   18  C  6  S   -0.000000  -0.000006   0.000000   0.000001  -0.000001
   19  C  6  S    0.000002   0.000234   0.000010  -0.000031   0.000013
   20  C  6  X   -0.000001  -0.000082  -0.000003   0.000007  -0.000001
   21  C  6  Y   -0.000000   0.000005  -0.000004  -0.000001  -0.000003
   22  C  6  Z    0.000001   0.000174   0.000012   0.000004   0.000010
   23  H  7  S   -0.000000  -0.000036  -0.000004  -0.000000  -0.000000
   24  H  8  S    0.000000   0.000003  -0.000000  -0.000002  -0.000000
   25  C  9  S    0.000002   0.000361   0.000031  -0.000003   0.000025
   26  C  9  S   -0.000013  -0.002167  -0.000205   0.000019  -0.000173
   27  C  9  X   -0.000002  -0.000416  -0.000066   0.000005  -0.000021
   28  C  9  Y    0.000008   0.001450   0.000134   0.000053   0.000107
   29  C  9  Z   -0.000011  -0.001983  -0.000187   0.000077  -0.000128
   30  H 10  S   -0.000000  -0.000043  -0.000002   0.000006  -0.000001
   31  H 11  S   -0.000003  -0.000508  -0.000019   0.000048  -0.000021
   32  BR12  S    0.994692   0.419584  -0.000703  -0.000008   0.000079
   33  BR12  S    0.014824  -1.059811   0.001790   0.000022  -0.000202
   34  BR12  X    0.000001  -0.000267  -0.048914  -0.137527   0.982101
   35  BR12  Y    0.000005  -0.000877  -0.593860   0.791534   0.081262
   36  BR12  Z   -0.000006   0.001168   0.794155   0.583431   0.121255
   37  BR12  S   -0.073371   2.443628  -0.003776  -0.000057   0.000482
   38  BR12  X   -0.000000  -0.000009  -0.000920  -0.002578   0.018406
   39  BR12  Y   -0.000003  -0.000337  -0.011197   0.014831   0.001520
   40  BR12  Z    0.000003   0.000434   0.014973   0.010931   0.002273
   41  BR12 XX    0.032031  -1.127825   0.001759   0.000024  -0.000202
   42  BR12 YY    0.032031  -1.127846   0.001710   0.000095  -0.000219
   43  BR12 ZZ    0.032032  -1.127850   0.001673  -0.000039  -0.000240
   44  BR12 XY    0.000000  -0.000002  -0.000010   0.000005   0.000049
   45  BR12 XZ   -0.000000   0.000005   0.000014   0.000017  -0.000062
   46  BR12 YZ   -0.000001   0.000005   0.000073  -0.000023   0.000000
   47  BR12  S    0.000099   0.019495   0.000188  -0.000006   0.000017
   48  BR12  X   -0.000000  -0.000054   0.000065   0.000189  -0.001348
   49  BR12  Y    0.000009   0.001480   0.000930  -0.001048  -0.000098
   50  BR12  Z   -0.000011  -0.001902  -0.001239  -0.000766  -0.000171
   51  H 13  S   -0.000000  -0.000124   0.000008  -0.000023   0.000013
   52  H 14  S   -0.000001  -0.000166  -0.000017   0.000026  -0.000002

                      6          7          8          9         10
                  -10.8309   -10.8199   -10.7983   -10.6813   -10.5893
                     A          A          A          A          A   
    1  C  1  S    0.991847   0.010696   0.003538   0.000386   0.000317
    2  C  1  S    0.037614  -0.005484  -0.005931   0.000094   0.000066
    3  C  1  X    0.000044  -0.003535   0.003455   0.000043  -0.000077
    4  C  1  Y   -0.000632   0.002304   0.002421   0.000293   0.000356
    5  C  1  Z   -0.000193  -0.000995  -0.001300   0.000146   0.000192
    6  C  2  S   -0.009749   0.991894   0.002951   0.001453   0.000186
    7  C  2  S   -0.006248   0.037229   0.000055  -0.005796   0.000223
    8  C  2  X    0.003315  -0.000377   0.000312   0.001219   0.000030
    9  C  2  Y   -0.002592   0.000287   0.000191   0.004005  -0.000019
   10  C  2  Z    0.000970  -0.000015  -0.000210   0.001193  -0.000110
   11  C  3  S   -0.000274  -0.000477  -0.000308   0.991898   0.001426
   12  C  3  S    0.000096  -0.005686   0.000155   0.036470  -0.006640
   13  C  3  X    0.000182  -0.001312   0.000016  -0.000963   0.004991
   14  C  3  Y   -0.000112  -0.003730  -0.000060  -0.000145  -0.000634
   15  C  3  Z    0.000117  -0.001242  -0.000085   0.001304   0.000571
   16  H  4  S    0.000094  -0.006858   0.000044  -0.000016   0.000054
   17  H  5  S    0.000171  -0.006838  -0.000195   0.000031  -0.000057
   18  C  6  S   -0.002562  -0.002838   0.991931   0.000379   0.001214
   19  C  6  S   -0.006026  -0.000198   0.037333   0.000114  -0.006057
   20  C  6  X   -0.003163  -0.000364   0.000515  -0.000146  -0.001324
   21  C  6  Y   -0.002646   0.000179   0.000573   0.000016   0.004031
   22  C  6  Z    0.001244  -0.000150   0.000227  -0.000118   0.001694
   23  H  7  S   -0.006858  -0.000039  -0.000017  -0.000125  -0.000081
   24  H  8  S   -0.006802   0.000041   0.000102  -0.000161  -0.000184
   25  C  9  S   -0.000192  -0.000133  -0.000218  -0.000679   0.991787
   26  C  9  S    0.000011   0.000231  -0.005522  -0.005725   0.037184
   27  C  9  X   -0.000118   0.000020   0.001142  -0.004227   0.003895
   28  C  9  Y   -0.000104   0.000041  -0.003664  -0.000443   0.002676
   29  C  9  Z    0.000164  -0.000051  -0.001384   0.000712  -0.001726
   30  H 10  S    0.000136  -0.000154  -0.006829  -0.000086   0.000059
   31  H 11  S    0.000010   0.000030  -0.006900   0.000080   0.000006
   32  BR12  S   -0.000000   0.000000   0.000001   0.000028   0.000024
   33  BR12  S    0.000001   0.000001   0.000001  -0.000093  -0.000077
   34  BR12  X    0.000000   0.000001  -0.000000  -0.000065   0.000066
   35  BR12  Y    0.000003  -0.000003  -0.000003  -0.000061  -0.000048
   36  BR12  Z    0.000000   0.000001   0.000001   0.000071   0.000065
   37  BR12  S    0.000002  -0.000005  -0.000005  -0.000609  -0.000530
   38  BR12  X   -0.000000  -0.000002  -0.000000   0.000216  -0.000220
   39  BR12  Y   -0.000009   0.000010   0.000012   0.000208   0.000163
   40  BR12  Z   -0.000001  -0.000003  -0.000005  -0.000241  -0.000223
   41  BR12 XX   -0.000003   0.000007   0.000008   0.000291   0.000254
   42  BR12 YY   -0.000002   0.000009   0.000010   0.000276   0.000247
   43  BR12 ZZ   -0.000003   0.000007   0.000008   0.000263   0.000235
   44  BR12 XY    0.000000   0.000002  -0.000002  -0.000024   0.000023
   45  BR12 XZ   -0.000000  -0.000002   0.000002   0.000030  -0.000030
   46  BR12 YZ   -0.000000  -0.000003  -0.000003   0.000034   0.000028
   47  BR12  S   -0.000001   0.000084   0.000080  -0.003145  -0.002735
   48  BR12  X    0.000000   0.000061  -0.000053  -0.001834   0.001863
   49  BR12  Y    0.000049   0.000044   0.000027  -0.002092  -0.001652
   50  BR12  Z    0.000017  -0.000020  -0.000012   0.002538   0.002185
   51  H 13  S   -0.000064   0.000088  -0.000081  -0.006749  -0.000002
   52  H 14  S    0.000078  -0.000042   0.000056  -0.000206  -0.007055

                     11         12         13         14         15
                   -8.9550    -6.6501    -6.6383    -6.6364    -2.0346
                     A          A          A          A          A   
    1  C  1  S   -0.000010   0.000019  -0.000024  -0.000003  -0.000004
    2  C  1  S    0.000050  -0.000126   0.000066   0.000004  -0.000038
    3  C  1  X    0.000007  -0.000004   0.000017  -0.000039  -0.000007
    4  C  1  Y   -0.000023   0.000058  -0.000151  -0.000026   0.000001
    5  C  1  Z    0.000062  -0.000076   0.000066   0.000004  -0.000043
    6  C  2  S    0.000014  -0.000036   0.000004  -0.000009  -0.000059
    7  C  2  S    0.000248  -0.000257   0.000565   0.000496   0.000642
    8  C  2  X    0.000153  -0.000180   0.000195   0.000115  -0.000563
    9  C  2  Y    0.000034   0.000034   0.000068  -0.000004  -0.000708
   10  C  2  Z    0.000146  -0.000195  -0.000273   0.000078   0.000813
   11  C  3  S    0.000617  -0.001056  -0.000036   0.000517   0.004027
   12  C  3  S   -0.003193   0.007427   0.000204  -0.003495  -0.014328
   13  C  3  X    0.000386  -0.001382  -0.000191  -0.000167   0.005832
   14  C  3  Y    0.001937  -0.004317  -0.002005   0.001471   0.008475
   15  C  3  Z   -0.002633   0.005635  -0.000706  -0.002895  -0.011110
   16  H  4  S   -0.000610   0.000583  -0.000936  -0.000867   0.000235
   17  H  5  S   -0.000059   0.000093  -0.000168  -0.000061  -0.000035
   18  C  6  S    0.000016  -0.000040   0.000007  -0.000001  -0.000047
   19  C  6  S    0.000258  -0.000198   0.000708  -0.000279   0.000409
   20  C  6  X   -0.000128   0.000138  -0.000238   0.000034   0.000622
   21  C  6  Y    0.000054   0.000011   0.000128   0.000026  -0.000554
   22  C  6  Z    0.000171  -0.000179  -0.000150  -0.000185   0.000515
   23  H  7  S   -0.000043   0.000097   0.000005   0.000009  -0.000141
   24  H  8  S    0.000005  -0.000003   0.000057   0.000010  -0.000003
   25  C  9  S    0.000617  -0.000901   0.000102  -0.000700   0.002666
   26  C  9  S   -0.003056   0.006124  -0.000659   0.004719  -0.007626
   27  C  9  X   -0.000558   0.001829  -0.000111   0.000333  -0.005091
   28  C  9  Y    0.001932  -0.003682  -0.001374  -0.002905   0.004965
   29  C  9  Z   -0.002603   0.005019  -0.002145   0.003263  -0.007342
   30  H 10  S   -0.000055   0.000072  -0.000150   0.000017   0.000031
   31  H 11  S   -0.000680   0.000531  -0.001375   0.000530   0.000403
   32  BR12  S    0.170426   0.001808   0.000036  -0.000243   0.000186
   33  BR12  S   -0.524629  -0.005598  -0.000111   0.000751  -0.000518
   34  BR12  X   -0.000857   0.023339   0.072376  -0.410890   0.000062
   35  BR12  Y   -0.002354   0.251100  -0.330954  -0.044030  -0.000769
   36  BR12  Z    0.003107  -0.332660  -0.244753  -0.062022   0.001022
   37  BR12  S    2.305878   0.023164   0.000531  -0.003432   0.003298
   38  BR12  X    0.002166  -0.059541  -0.184671   1.048430  -0.000177
   39  BR12  Y    0.005864  -0.640454   0.844483   0.112362   0.001924
   40  BR12  Z   -0.007742   0.848482   0.624532   0.158250  -0.002558
   41  BR12 XX   -0.552491  -0.002963  -0.000317   0.001850   0.452522
   42  BR12 YY   -0.551210  -0.005405   0.003135   0.000925  -0.013731
   43  BR12 ZZ   -0.550450  -0.007349  -0.003219  -0.000279  -0.441105
   44  BR12 XY    0.000078  -0.000611   0.000200   0.002373  -0.064507
   45  BR12 XZ   -0.000200   0.000815   0.001001  -0.002907   0.062098
   46  BR12 YZ   -0.001535   0.003987  -0.001081   0.000039   0.851262
   47  BR12  S    0.032082  -0.006210   0.000137  -0.000303   0.007105
   48  BR12  X    0.000102  -0.002628  -0.008152   0.046013   0.000560
   49  BR12  Y    0.002412  -0.032197   0.036192   0.004536   0.006013
   50  BR12  Z   -0.003108   0.042555   0.026611   0.007042  -0.007961
   51  H 13  S   -0.000285   0.000030   0.000771  -0.000458   0.001583
   52  H 14  S   -0.000187   0.000340  -0.000600   0.000003  -0.000416

                     16         17         18         19         20
                   -2.0306    -2.0297    -2.0171    -2.0171    -0.8600
                     A          A          A          A          A   
    1  C  1  S    0.000028  -0.000004   0.000007  -0.000022  -0.127392
    2  C  1  S   -0.000049   0.000010  -0.000043   0.000108   0.335232
    3  C  1  X   -0.000001  -0.000037   0.000057   0.000021   0.005407
    4  C  1  Y    0.000198  -0.000024   0.000052  -0.000158  -0.058573
    5  C  1  Z   -0.000029   0.000024   0.000010  -0.000005   0.019047
    6  C  2  S   -0.000013  -0.000033  -0.000032   0.000032  -0.115670
    7  C  2  S   -0.001018   0.001090  -0.000386  -0.000373   0.304450
    8  C  2  X    0.000085   0.000041  -0.000084   0.000071  -0.059244
    9  C  2  Y    0.000205  -0.000615  -0.000170   0.000262  -0.000858
   10  C  2  Z    0.000531   0.000303   0.000129  -0.000019  -0.014210
   11  C  3  S    0.000505   0.002513   0.000051  -0.000118  -0.093274
   12  C  3  S   -0.002351  -0.012106   0.000006   0.000637   0.233034
   13  C  3  X    0.000395   0.001513  -0.000530   0.001844  -0.037258
   14  C  3  Y    0.005963   0.005050   0.001769   0.000137   0.032468
   15  C  3  Z    0.001207  -0.009081   0.000653   0.001088   0.031378
   16  H  4  S    0.000582  -0.000569   0.000853  -0.000016   0.067348
   17  H  5  S    0.000131  -0.000113   0.000083  -0.000019   0.061449
   18  C  6  S   -0.000001   0.000043  -0.000002   0.000053  -0.102526
   19  C  6  S   -0.001215  -0.000609   0.000746   0.000006   0.266082
   20  C  6  X   -0.000011  -0.000185   0.000017  -0.000157   0.059141
   21  C  6  Y    0.000390   0.000547  -0.000157   0.000394   0.006494
   22  C  6  Z    0.000254  -0.000605  -0.000093  -0.000161  -0.016991
   23  H  7  S   -0.000007   0.000014  -0.000011   0.000038   0.074038
   24  H  8  S   -0.000054   0.000005  -0.000008   0.000029   0.069592
   25  C  9  S   -0.000807  -0.003016   0.000303  -0.000533  -0.078303
   26  C  9  S    0.003338   0.013277  -0.001279   0.002574   0.184173
   27  C  9  X    0.001223   0.004597   0.000191  -0.000796   0.047037
   28  C  9  Y    0.001898  -0.007929  -0.001402  -0.002481   0.035747
   29  C  9  Z    0.005559   0.009258  -0.002892   0.001574   0.016179
   30  H 10  S    0.000126   0.000030  -0.000049  -0.000066   0.050693
   31  H 11  S    0.000764   0.000229  -0.000678  -0.000772   0.059061
   32  BR12  S    0.000007   0.000021  -0.000015   0.000072  -0.007217
   33  BR12  S   -0.000025  -0.000070   0.000051  -0.000231   0.022526
   34  BR12  X   -0.000316  -0.001275  -0.000101   0.000253   0.000666
   35  BR12  Y    0.001146  -0.000404   0.000205  -0.000032   0.005470
   36  BR12  Z    0.000922  -0.000055   0.000097   0.000189  -0.005636
   37  BR12  S    0.000074   0.000230  -0.000158   0.000919  -0.108989
   38  BR12  X    0.000828   0.003349   0.000274  -0.000683  -0.001992
   39  BR12  Y   -0.003064   0.001090  -0.000560   0.000106  -0.016300
   40  BR12  Z   -0.002473   0.000141  -0.000248  -0.000534   0.016797
   41  BR12 XX   -0.020918  -0.085745  -0.336259   0.820456   0.028222
   42  BR12 YY    0.814142  -0.167714   0.172006  -0.528604   0.022603
   43  BR12 ZZ   -0.793268   0.253314   0.164353  -0.292470   0.021682
   44  BR12 XY   -0.100215  -0.590426   0.748086   0.278005  -0.000318
   45  BR12 XZ    0.220967   0.764243   0.537702   0.271433   0.000599
   46  BR12 YZ   -0.281576   0.015562   0.195210  -0.396149   0.008340
   47  BR12  S   -0.000325  -0.000778   0.000564  -0.001167   0.166764
   48  BR12  X    0.000989   0.003878  -0.000207   0.000389   0.005382
   49  BR12  Y   -0.000806  -0.000280   0.000451  -0.000652   0.034476
   50  BR12  Z   -0.000225   0.000621  -0.000419   0.000949  -0.034436
   51  H 13  S    0.000025   0.000484  -0.000592  -0.000449   0.044457
   52  H 14  S    0.001166   0.000029  -0.000462  -0.000218   0.033427

                     21         22         23         24         25
                   -0.7296    -0.6776    -0.5632    -0.5141    -0.4350
                     A          A          A          A          A   
    1  C  1  S    0.121770   0.003686  -0.112043   0.062379  -0.003458
    2  C  1  S   -0.346298  -0.010411   0.349093  -0.199446   0.011346
    3  C  1  X    0.007338   0.162729   0.009635  -0.002394  -0.143579
    4  C  1  Y   -0.005072   0.004650   0.141866  -0.050644   0.074534
    5  C  1  Z   -0.008296  -0.006927  -0.036952   0.127029   0.010869
    6  C  2  S    0.028656  -0.155336   0.054950  -0.069521   0.028395
    7  C  2  S   -0.077447   0.452620  -0.170871   0.219199  -0.088671
    8  C  2  X    0.027502   0.035977  -0.045667   0.105975   0.031158
    9  C  2  Y   -0.096922   0.004445   0.098740   0.034202  -0.169746
   10  C  2  Z    0.004989  -0.004078  -0.003249   0.122419  -0.044951
   11  C  3  S   -0.110108  -0.044381   0.052275   0.083987  -0.114335
   12  C  3  S    0.301417   0.124096  -0.152808  -0.257399   0.369468
   13  C  3  X   -0.061195   0.074436   0.005910   0.090338   0.226887
   14  C  3  Y   -0.057192   0.057319  -0.087194   0.027190  -0.105978
   15  C  3  Z    0.045137   0.016115   0.038601   0.087135  -0.025283
   16  H  4  S   -0.014737   0.140374  -0.063432   0.186750  -0.065028
   17  H  5  S   -0.029033   0.162081  -0.063648   0.110258  -0.042291
   18  C  6  S    0.048014   0.149301   0.067219  -0.076701  -0.032900
   19  C  6  S   -0.130303  -0.430502  -0.206892   0.239819   0.101080
   20  C  6  X   -0.024534   0.013715   0.040386  -0.089206  -0.093612
   21  C  6  Y   -0.085796  -0.001243   0.088727   0.034467   0.199494
   22  C  6  Z    0.006349   0.003065  -0.005735   0.122893   0.063455
   23  H  7  S   -0.095632  -0.003793   0.152802  -0.169034   0.007520
   24  H  8  S   -0.109294  -0.001630   0.202238  -0.074170   0.061854
   25  C  9  S   -0.081677   0.066470   0.058045   0.072576   0.116617
   26  C  9  S    0.209305  -0.177527  -0.164840  -0.210836  -0.360585
   27  C  9  X    0.078102   0.022930  -0.009745  -0.096061   0.035717
   28  C  9  Y   -0.036782  -0.049446  -0.083222   0.005386  -0.016174
   29  C  9  Z    0.020983  -0.020649   0.033407   0.090053   0.005791
   30  H 10  S   -0.042362  -0.144162  -0.080343   0.124598   0.137203
   31  H 11  S   -0.029885  -0.128006  -0.071493   0.182694   0.086591
   32  BR12  S   -0.019899   0.002686  -0.023171  -0.014544   0.003115
   33  BR12  S    0.062674  -0.008487   0.074015   0.046774  -0.010051
   34  BR12  X    0.002096   0.003364   0.002001   0.000416   0.015083
   35  BR12  Y    0.007831  -0.000813  -0.004000  -0.002840  -0.000996
   36  BR12  Z   -0.010996   0.001003   0.002259   0.010658  -0.003897
   37  BR12  S   -0.298106   0.040113  -0.343304  -0.214279   0.045840
   38  BR12  X   -0.006278  -0.010066  -0.006011  -0.001253  -0.045340
   39  BR12  Y   -0.023387   0.002427   0.012022   0.008538   0.002990
   40  BR12  Z    0.032838  -0.002991  -0.006818  -0.032012   0.011725
   41  BR12 XX    0.072044  -0.009684   0.077365   0.046244  -0.011370
   42  BR12 YY    0.067429  -0.008955   0.079573   0.047366  -0.008712
   43  BR12 ZZ    0.060837  -0.008422   0.077918   0.054341  -0.011735
   44  BR12 XY   -0.000773  -0.003401  -0.000300   0.000206  -0.005269
   45  BR12 XZ    0.001293   0.002625   0.000285  -0.000452   0.008526
   46  BR12 YZ    0.011116  -0.001153  -0.002068  -0.005431  -0.000380
   47  BR12  S    0.500427  -0.069412   0.651645   0.428441  -0.093620
   48  BR12  X    0.018011   0.025728   0.019423   0.005600   0.130987
   49  BR12  Y    0.052107  -0.005129  -0.034026  -0.019579  -0.008856
   50  BR12  Z   -0.073084   0.006401   0.019398   0.086149  -0.034335
   51  H 13  S    0.089108   0.042677  -0.032338  -0.104812   0.336308
   52  H 14  S    0.046245  -0.045822  -0.063263  -0.115444  -0.158011

                     26         27         28         29         30
                   -0.3938    -0.3717    -0.3137    -0.2633    -0.2297
                     A          A          A          A          A   
    1  C  1  S    0.022468   0.005321  -0.000685   0.020870  -0.011265
    2  C  1  S   -0.078152  -0.020461   0.002873  -0.084544   0.041574
    3  C  1  X    0.013292   0.045079  -0.195352  -0.003741  -0.089569
    4  C  1  Y    0.068773   0.342976   0.003701   0.256326  -0.149638
    5  C  1  Z   -0.265180   0.209825  -0.062436  -0.307166  -0.236991
    6  C  2  S   -0.017493   0.008278  -0.006683   0.009282   0.022515
    7  C  2  S    0.055604  -0.029808   0.022103  -0.035073  -0.090553
    8  C  2  X    0.262833   0.168865   0.002106   0.108417   0.125625
    9  C  2  Y    0.080453   0.129770  -0.144566  -0.189891   0.164236
   10  C  2  Z   -0.192318   0.164313   0.369739   0.069890   0.238908
   11  C  3  S    0.026787  -0.002132   0.005852  -0.018050   0.032919
   12  C  3  S   -0.091015   0.006534  -0.017323   0.073254  -0.123690
   13  C  3  X    0.066506  -0.044969   0.008086  -0.084890   0.089949
   14  C  3  Y   -0.037941  -0.166126   0.004937   0.090968  -0.267409
   15  C  3  Z   -0.083359  -0.057877   0.093876   0.207117  -0.112825
   16  H  4  S   -0.093096   0.154375   0.361780   0.089581   0.254560
   17  H  5  S    0.317479   0.071863  -0.222502  -0.020490  -0.004729
   18  C  6  S   -0.017970   0.015234   0.007664   0.012024  -0.012226
   19  C  6  S    0.059663  -0.049212  -0.026376  -0.043700   0.046395
   20  C  6  X   -0.244341  -0.122412  -0.061561  -0.120802   0.212645
   21  C  6  Y   -0.018286  -0.014129   0.103987  -0.151805  -0.045243
   22  C  6  Z   -0.152080   0.098298  -0.328749   0.141074   0.177525
   23  H  7  S    0.203583  -0.158166   0.072635   0.310038   0.288818
   24  H  8  S   -0.080952   0.361990  -0.024863   0.073520  -0.273966
   25  C  9  S   -0.024064  -0.068900   0.000783  -0.007228  -0.006688
   26  C  9  S    0.079929   0.223689  -0.010774   0.032191   0.025007
   27  C  9  X   -0.098135  -0.016639  -0.021441   0.067963  -0.075506
   28  C  9  Y   -0.021340  -0.113473   0.027467   0.007256  -0.039793
   29  C  9  Z   -0.067132  -0.060590  -0.098876   0.225596  -0.030077
   30  H 10  S    0.251574   0.037070   0.186777  -0.006171  -0.285408
   31  H 11  S   -0.095463   0.068674  -0.314936   0.142427   0.220675
   32  BR12  S   -0.004867   0.006353  -0.000406   0.005695   0.001398
   33  BR12  S    0.015822  -0.020695   0.001379  -0.018834  -0.004525
   34  BR12  X   -0.002468  -0.004005   0.010864  -0.005819   0.001228
   35  BR12  Y   -0.010483   0.003798  -0.000335   0.032909  -0.006308
   36  BR12  Z    0.003597  -0.014143   0.001798  -0.012146  -0.005754
   37  BR12  S   -0.071000   0.092788  -0.005667   0.082015   0.020794
   38  BR12  X    0.007419   0.012050  -0.032711   0.017539  -0.003706
   39  BR12  Y    0.031520  -0.011410   0.001005  -0.099102   0.019023
   40  BR12  Z   -0.010803   0.042532  -0.005408   0.036515   0.017345
   41  BR12 XX    0.014415  -0.020320   0.001222  -0.016953  -0.005957
   42  BR12 YY    0.018914  -0.019070   0.001104  -0.022934  -0.002408
   43  BR12 ZZ    0.016384  -0.025825   0.001899  -0.018943  -0.006208
   44  BR12 XY    0.001027   0.001192  -0.003551   0.000737   0.000818
   45  BR12 XZ   -0.001128  -0.001344   0.001797  -0.001378   0.001038
   46  BR12 YZ   -0.003516   0.002954  -0.000533   0.006816  -0.002112
   47  BR12  S    0.153789  -0.203427   0.016427  -0.198841  -0.043179
   48  BR12  X   -0.021875  -0.037086   0.101579  -0.054984   0.010877
   49  BR12  Y   -0.092987   0.030382  -0.001560   0.308053  -0.060184
   50  BR12  Z    0.027415  -0.123503   0.014893  -0.103261  -0.055905
   51  H 13  S    0.041733   0.087639  -0.049132  -0.185843   0.241939
   52  H 14  S    0.113785   0.174631   0.078832  -0.206293   0.087929

                     31         32         33         34         35
                   -0.2209    -0.2000    -0.1766    -0.1236    -0.0790
                     A          A          A          A          A   
    1  C  1  S   -0.004590   0.012815   0.006161   0.008181   0.001718
    2  C  1  S    0.018552  -0.053258  -0.023702  -0.034234  -0.006389
    3  C  1  X    0.481827   0.040791  -0.095681   0.074237   0.005780
    4  C  1  Y   -0.065642   0.192713  -0.033754   0.028464  -0.024427
    5  C  1  Z   -0.094171  -0.055967  -0.077631  -0.018187   0.004384
    6  C  2  S   -0.018410  -0.005778  -0.020051   0.016307   0.020734
    7  C  2  S    0.074362   0.026715   0.078267  -0.067656  -0.086887
    8  C  2  X   -0.381608  -0.064298  -0.028916   0.048022   0.031407
    9  C  2  Y    0.181079  -0.302768  -0.147527   0.113274   0.182867
   10  C  2  Z    0.082223   0.002081  -0.027418  -0.036869   0.049867
   11  C  3  S   -0.006692  -0.004523  -0.016407   0.002218  -0.023482
   12  C  3  S    0.023986   0.005060   0.063222   0.009932   0.086295
   13  C  3  X    0.018680   0.254648  -0.183568  -0.127693  -0.153487
   14  C  3  Y   -0.081044   0.230898   0.170037  -0.076524  -0.062018
   15  C  3  Z   -0.030605  -0.080184  -0.021280   0.166116  -0.227920
   16  H  4  S    0.047808   0.024581   0.020022  -0.055307   0.070684
   17  H  5  S   -0.318169  -0.172801  -0.033237   0.101423   0.036307
   18  C  6  S    0.018078   0.006552   0.038334  -0.008393   0.011639
   19  C  6  S   -0.074089  -0.021903  -0.158071   0.031252  -0.050277
   20  C  6  X   -0.347409   0.004687  -0.104718   0.008834  -0.029770
   21  C  6  Y   -0.096784  -0.236209   0.410534  -0.054088   0.106249
   22  C  6  Z    0.080727   0.109316   0.273256   0.054719  -0.026900
   23  H  7  S    0.084932   0.069633   0.102550   0.008448  -0.006371
   24  H  8  S   -0.109437   0.177767  -0.110035   0.008829  -0.042563
   25  C  9  S    0.016121  -0.017263   0.017433   0.008569   0.009080
   26  C  9  S   -0.055810   0.055912  -0.072721  -0.064944  -0.038634
   27  C  9  X   -0.042098  -0.218257   0.160777   0.081563   0.189833
   28  C  9  Y   -0.060431   0.127512  -0.275962   0.169406   0.039559
   29  C  9  Z   -0.004452  -0.146067  -0.263728  -0.193040  -0.041453
   30  H 10  S    0.264370  -0.147766   0.054168  -0.038530   0.077340
   31  H 11  S    0.072016   0.140661   0.244642   0.093320  -0.013757
   32  BR12  S    0.000832  -0.003910  -0.001095   0.000224  -0.000812
   33  BR12  S   -0.002732   0.013337   0.003603  -0.000672   0.002646
   34  BR12  X    0.003446   0.000087  -0.006884   0.084235  -0.019053
   35  BR12  Y   -0.002357  -0.013095  -0.010948   0.013357   0.057044
   36  BR12  Z   -0.005670   0.044533  -0.000342   0.010256   0.064508
   37  BR12  S    0.012161  -0.054390  -0.016040   0.003511  -0.012036
   38  BR12  X   -0.010390  -0.000271   0.020770  -0.254238   0.057527
   39  BR12  Y    0.007112   0.039395   0.033008  -0.040310  -0.172296
   40  BR12  Z    0.017086  -0.134158   0.001047  -0.030962  -0.194719
   41  BR12 XX   -0.003156   0.009299   0.005695   0.000689   0.004478
[...]
                   Y  0.20993016 -0.01781642 -0.03304986  0.06348118  0.07252397
                   Z -0.01721208 -0.05087053  0.01013627 -0.04926744 -0.03889729
  8   H            X  0.08852059 -0.16876911  0.36207327  0.21420899  0.18701102
                   Y -0.05489897  0.04453281  0.05013422 -0.08036873  0.09250473
                   Z  0.02347947  0.00098955 -0.05519817  0.00909556 -0.07442930
  9   C            X -0.03802337 -0.04687735 -0.00210113 -0.01168255  0.04686958
                   Y -0.00402957  0.01856728  0.02648479 -0.00735882 -0.00619760
                   Z  0.01425660 -0.05966163 -0.03423064  0.02296036  0.02220793
 10   H            X  0.20188568  0.04779004  0.08377574  0.04458028  0.12918444
                   Y  0.38914675 -0.06794867  0.23931189 -0.07756722  0.30780907
                   Z -0.04060718 -0.05623445  0.02766746 -0.08503233  0.00584098
 11   H            X -0.16313838 -0.06212392  0.17371981 -0.11188041 -0.00704385
                   Y -0.25983233  0.06265788  0.50108080 -0.36973935 -0.05568617
                   Z -0.00168170  0.03570053  0.01295834 -0.00592758 -0.01360579
 12   BR           X  0.00012161  0.00175955  0.00062160 -0.00120007 -0.00030967
                   Y -0.00059984 -0.00263776 -0.00076132  0.00038167  0.00129301
                   Z  0.00024903  0.00311182  0.00062363 -0.00120619 -0.00101301
 13   H            X -0.16186875 -0.34631395 -0.11280698 -0.00090867  0.20250086
                   Y -0.16948972 -0.37083624 -0.13180944 -0.05996708  0.27469724
                   Z  0.02118901  0.03158999 -0.01526555  0.01263927 -0.02373462
 14   H            X  0.12348597 -0.05180146 -0.30452907  0.15817767 -0.15964060
                   Y  0.08835310 -0.16186196 -0.03245775 -0.05725336  0.13380303
                   Z -0.00572326 -0.08614448  0.04176345 -0.03714903  0.10129680

 TRANS. SAYVETZ    X  0.00000080 -0.00000031 -0.00000173 -0.00000061  0.00000054
                   Y  0.00000108  0.00000029 -0.00000021  0.00000092 -0.00000118
                   Z  0.00000046 -0.00000052 -0.00000020 -0.00000141 -0.00000001
               TOTAL  0.00000142  0.00000067  0.00000175  0.00000179  0.00000130

   ROT. SAYVETZ    X  0.00191444  0.05532397 -0.00501928 -0.01991277 -0.01868519
                   Y -0.10799400 -0.05324087  0.01246948 -0.03988290  0.07726976
                   Z -0.05815553 -0.04337524  0.01353423 -0.02267187  0.05425730
               TOTAL  0.12267206  0.08818584  0.01907502  0.05001178  0.09624763

                           31          32          33          34          35
       FREQUENCY:      1703.71     1846.41     1859.35     1875.89     2937.72  
        SYMMETRY:         A           A           A           A           A   
    REDUCED MASS:      1.16885     1.08758     1.10933     1.12575     1.08374
    IR INTENSITY:      0.42384     0.08630     0.34867     0.02876    10.88770

  1   C            X -0.01820512  0.00809179  0.01344937 -0.00996250 -0.00053903
                   Y  0.00538098 -0.05928718 -0.01993973  0.06139755 -0.00048598
                   Z  0.00869452  0.01600019  0.00606862 -0.00930596  0.00036747
  2   C            X  0.01333706  0.04755966 -0.05134131  0.05108074  0.00035380
                   Y -0.00340283  0.01443231 -0.01252842  0.00536969  0.00054070
                   Z -0.00346442  0.00582252 -0.00474742  0.00221827  0.00027130
  3   C            X -0.03197916  0.00225773  0.00078489 -0.00128357 -0.00161756
                   Y -0.00375079  0.00101545 -0.00005758 -0.00234338  0.00397542
                   Z -0.04996325 -0.00184478  0.00120724  0.00050701 -0.00322828
  4   H            X  0.01604522 -0.33414864  0.29890595 -0.28177397  0.00158456
                   Y  0.04866256 -0.13747777  0.11901871 -0.08872975 -0.00256851
                   Z -0.00813628  0.22746744 -0.20636527  0.19031086  0.00572229
  5   H            X  0.02666759 -0.28306221  0.25426558 -0.23698875  0.00209503
                   Y  0.03769399 -0.07693655  0.05688545 -0.02952663 -0.00236108
                   Z  0.02080186 -0.30170481  0.27758470 -0.25548649 -0.00485289
  6   C            X -0.00367934 -0.01407017 -0.05945043 -0.04736534  0.00220481
                   Y -0.05936578  0.00315724  0.01157427  0.00301753  0.00558898
                   Z  0.02604898  0.01045244  0.03447024  0.02544298 -0.00042503
  7   H            X  0.04012310 -0.01420633 -0.03363357  0.01545349 -0.00156375
                   Y -0.00081027  0.44624627  0.13558486 -0.36822034 -0.00148439
                   Z -0.00283684  0.22129523  0.07571775 -0.18373508 -0.00460109
  8   H            X  0.06939398 -0.08413269 -0.05621234  0.06598973  0.00137717
                   Y  0.02227597  0.30574346  0.09435930 -0.23329111 -0.00289952
                   Z -0.01330407 -0.39244419 -0.12024994  0.33073144  0.00299939
  9   C            X -0.04369257 -0.00153625  0.00072219  0.00238540 -0.01771258
                   Y  0.03986361  0.00064643 -0.00253217 -0.00392853  0.00535124
                   Z  0.02513370  0.00094677 -0.00523578  0.00149864 -0.07721547
 10   H            X  0.05254716  0.05510842  0.17511200  0.13371445 -0.01652011
                   Y  0.07542689 -0.01038403 -0.00379598  0.02948698 -0.00268320
                   Z  0.00672376 -0.14638971 -0.49086588 -0.35976693 -0.00710474
 11   H            X  0.05631316  0.15484879  0.50707919  0.36830531  0.00116540
                   Y  0.34281095 -0.02800136 -0.12292387 -0.08531194 -0.00695681
                   Z  0.04934866  0.02511197  0.07788936  0.05807623 -0.00063843
 12   BR           X -0.00144021 -0.00022935  0.00025894 -0.00026651  0.00001831
                   Y -0.00019082 -0.00003282  0.00006131  0.00012059 -0.00020276
                   Z  0.00044110 -0.00004622  0.00016641 -0.00016343  0.00044198
 13   H            X  0.14068087  0.00435877 -0.01410812  0.01767582 -0.00308479
                   Y  0.08770836 -0.00280799 -0.00581681  0.01776868 -0.00573567
                   Z  0.03895522  0.00174384 -0.00542408 -0.00607978  0.00797711
 14   H            X  0.71378938  0.01550141 -0.01059037 -0.00024227  0.21962607
                   Y -0.34550793 -0.01711348  0.00150307 -0.00785562 -0.13768249
                   Z -0.20288707 -0.00506323  0.00048750 -0.00368683  0.92117367

 TRANS. SAYVETZ    X  0.00000128 -0.00000025  0.00000027  0.00000048 -0.00000088
                   Y  0.00000254 -0.00000006 -0.00000002  0.00000005  0.00000044
                   Z -0.00000040 -0.00000048  0.00000006  0.00000014 -0.00000029
               TOTAL  0.00000287  0.00000055  0.00000028  0.00000050  0.00000103

   ROT. SAYVETZ    X -0.09937575 -0.00195720  0.00864819  0.00373084  0.02410107
                   Y -0.07719017 -0.00305200  0.00409517  0.00260024  0.01156480
                   Z -0.00688745 -0.00087004 -0.00150782 -0.00042664 -0.00441186
               TOTAL  0.12602102  0.00372858  0.00968685  0.00456754  0.02709374

                           36          37          38          39          40
       FREQUENCY:      3526.39     3532.73     3566.39     3640.86     3647.57  
        SYMMETRY:         A           A           A           A           A   
    REDUCED MASS:      1.06499     1.06339     1.06704     1.09530     1.10536
    IR INTENSITY:      1.47272     0.91926     0.77924     0.60913     0.42602

  1   C            X -0.00259938  0.00120516 -0.00694881  0.00062999 -0.00036421
                   Y  0.00509045  0.01230676  0.06757325  0.00065286  0.00300028
                   Z  0.00182864  0.00042496 -0.00960430  0.00644713  0.00609770
  2   C            X  0.01025693 -0.06164568  0.01338715  0.00261401  0.01507875
                   Y  0.00323018 -0.02095048  0.00159485  0.00115560  0.01180993
                   Z  0.00291653 -0.01563668  0.00584818 -0.04215984 -0.07510812
  3   C            X  0.00031595  0.00269438 -0.00170808 -0.04180833  0.01875383
                   Y  0.00072748 -0.00303474  0.00171445  0.04336078 -0.02129247
                   Z -0.00030090 -0.00161569  0.00180343  0.04136932 -0.01855918
  4   H            X -0.05592817  0.33099114 -0.06878766  0.14975315  0.23676006
                   Y -0.01501396  0.08636037 -0.02002915  0.04198752  0.06594331
                   Z -0.10775898  0.63149842 -0.13165460  0.27220811  0.42598327
  5   H            X -0.05806674  0.36619127 -0.05223001 -0.19003640 -0.40014985
                   Y -0.02637247  0.16908978 -0.02257946 -0.08626208 -0.18615954
                   Z  0.07201745 -0.44579373  0.06447115  0.21970672  0.46063763
  6   C            X  0.04750857  0.00693888 -0.00464583 -0.00481863  0.01671435
                   Y -0.00998371 -0.00199005 -0.00123977  0.00223697 -0.00708028
                   Z -0.04861790 -0.00664604  0.00965892 -0.00785680  0.02215113
  7   H            X  0.00333937  0.01616075  0.08562283 -0.00657040 -0.00180551
                   Y -0.01403175 -0.03811847 -0.22408027  0.01875378  0.01098381
                   Z  0.03596716  0.09896904  0.57278019 -0.04791185 -0.02950499
  8   H            X -0.00096255 -0.00434762 -0.02060323 -0.00180733 -0.00185423
                   Y -0.06131634 -0.11995956 -0.53037580 -0.02894635 -0.04352959
                   Z -0.05334982 -0.10462084 -0.46791179 -0.02460611 -0.03648350
  9   C            X -0.00087469 -0.00044886  0.00004692  0.00204994 -0.00111314
                   Y -0.00007466  0.00056328 -0.00045242 -0.00052379  0.00063292
                   Z  0.00102711 -0.00103628 -0.00016494  0.00172099 -0.00112693
 10   H            X -0.45561297 -0.06807790  0.02192418  0.06715823 -0.21587983
                   Y  0.16272683  0.02482682 -0.00605192 -0.02490767  0.07867830
                   Z -0.21285099 -0.03114475  0.01081665  0.02935925 -0.09529787
 11   H            X -0.07015888 -0.00977877  0.01070961 -0.00722066  0.01874701
                   Y -0.04032737 -0.00584299  0.00283806 -0.00220528  0.00633814
                   Z  0.78471298  0.10951362 -0.11695677  0.06403892 -0.16959962
 12   BR           X -0.00013725  0.00018138 -0.00002040 -0.00010047  0.00010661
                   Y  0.00006524  0.00000101  0.00000918  0.00012870 -0.00010303
                   Z  0.00001383  0.00013939 -0.00004683 -0.00033764  0.00019719
 13   H            X -0.00212578 -0.03319446  0.02300884  0.48530596 -0.22483040
                   Y  0.00119227  0.03342907 -0.02247559 -0.48165361  0.22551623
                   Z  0.00182365  0.02976823 -0.02206771 -0.48349274  0.22607579
 14   H            X  0.00006271 -0.00184872  0.00038884  0.00343007 -0.00359821
                   Y  0.00006300  0.00617761 -0.00180320 -0.00506515  0.00424800
                   Z -0.00790583 -0.00727108  0.00439741  0.00284247 -0.00490745

 TRANS. SAYVETZ    X  0.00000005  0.00000078  0.00000024 -0.00000014 -0.00000001
                   Y  0.00000006 -0.00000010 -0.00000027 -0.00000018  0.00000013
                   Z  0.00000022  0.00000030  0.00000020 -0.00000023  0.00000001
               TOTAL  0.00000023  0.00000084  0.00000041  0.00000032  0.00000014

   ROT. SAYVETZ    X -0.00019783 -0.00015421  0.00035166  0.00300816 -0.00143796
                   Y -0.00082453 -0.00030795  0.00006501  0.00106709 -0.00054937
                   Z -0.00026034 -0.00026024  0.00008772  0.00292121 -0.00127609
               TOTAL  0.00088700  0.00043167  0.00036822  0.00432680  0.00199949

                           41          42
       FREQUENCY:      3653.44     3688.89  
        SYMMETRY:         A           A   
    REDUCED MASS:      1.10775     1.11001
    IR INTENSITY:      0.84422     0.87247

  1   C            X  0.00146605 -0.00961634
                   Y  0.00723930 -0.01571094
                   Z  0.01265998 -0.08832002
  2   C            X  0.00549863  0.00050344
                   Y  0.00383710  0.00098881
                   Z -0.01947692 -0.01054829
  3   C            X  0.01159777  0.00005402
                   Y -0.01188823 -0.00003006
                   Z -0.01118283 -0.00013666
  4   H            X  0.05614860  0.04481063
                   Y  0.01570737  0.00990728
                   Z  0.10131810  0.07486237
  5   H            X -0.10931144 -0.04773975
                   Y -0.05083549 -0.02074231
                   Z  0.12610196  0.05581499
  6   C            X -0.05160283 -0.00512350
                   Y  0.02185082  0.00245035
                   Z -0.06342172 -0.00950217
  7   H            X -0.01025728  0.09648472
                   Y  0.02299407 -0.27015138
                   Z -0.06318368  0.65087803
  8   H            X -0.00358603  0.01731681
                   Y -0.10023133  0.45648668
                   Z -0.08378387  0.38691018
  9   C            X -0.00025666  0.00003656
                   Y -0.00103530  0.00010157
                   Z -0.00154609 -0.00027230
 10   H            X  0.64451161  0.07230206
                   Y -0.23464277 -0.02515847
                   Z  0.28366356  0.03291653
 11   H            X -0.05061905 -0.01243272
                   Y -0.01809832 -0.00526502
                   Z  0.47299591  0.08668892
 12   BR           X -0.00004199 -0.00001520
                   Y -0.00003936 -0.00000850
                   Z  0.00012747  0.00001813
 13   H            X -0.13033708 -0.00162029
                   Y  0.13026037  0.00208858
                   Z  0.13085457  0.00163516
 14   H            X  0.00320077  0.00050108
                   Y -0.00025234 -0.00123309
                   Z  0.00993244  0.00409266

 TRANS. SAYVETZ    X  0.00000014  0.00000016
                   Y  0.00000009  0.00000000
                   Z  0.00000003  0.00000012
               TOTAL  0.00000017  0.00000020

   ROT. SAYVETZ    X -0.00010554  0.00001568
                   Y  0.00003792  0.00005867
                   Z -0.00081769 -0.00001402
               TOTAL  0.00082535  0.00006233

 REFERENCE ON SAYVETZ CONDITIONS - A. SAYVETZ, J.CHEM.PHYS., 7, 383-389(1939).

 NOTE - THE MODES J,K ARE ORTHONORMALIZED ACCORDING TO
 SUM ON I   M(I) * (X(I,J)*X(I,K) + Y(I,J)*Y(I,K) + Z(I,J)*Z(I,K)) = DELTA(J,K)

  MODE FREQ(CM**-1)  SYMMETRY  RED. MASS  IR INTENS.
     1     769.993    A        3.370395   14.621390
     2     234.669    A        4.573266    0.179095
     3     157.858    A        5.872568    0.063542
     4       0.074    A       10.498438    0.000000
     5       0.188    A       10.498727    0.000000
     6       0.188    A       10.497323    0.000000
     7      47.180    A        4.026397    0.015787
     8     132.388    A        2.077310    0.010252
     9     251.797    A        2.321731    0.194990
    10     325.777    A        2.586178    0.025721
    11     627.141    A        2.359707    0.101047
    12     749.510    A        2.767256    0.157405
    13     760.401    A        3.492499    0.222646
    14     939.286    A        1.905654    0.081344
    15     969.163    A        1.298742    0.092596
    16    1012.213    A        1.980369    0.037677
    17    1054.720    A        3.021737    0.088234
    18    1078.210    A        2.448957    0.218721
    19    1100.486    A        1.678447    0.012689
    20    1166.746    A        1.423865    0.223158
    21    1217.181    A        1.944120    0.099206
    22    1242.313    A        1.384481    0.088425
    23    1400.048    A        1.703663    0.044046
    24    1439.633    A        1.380518    0.037462
    25    1486.520    A        1.502527    0.616725
    26    1499.100    A        1.385422    0.053716
    27    1549.643    A        1.413665    0.241819
    28    1584.144    A        1.321875    0.248282
    29    1614.298    A        1.466416    0.488068
    30    1631.749    A        1.496747    0.682762
    31    1703.714    A        1.168853    0.423835
    32    1846.409    A        1.087580    0.086303
    33    1859.350    A        1.109332    0.348667
    34    1875.890    A        1.125754    0.028763
    35    2937.721    A        1.083739   10.887699
    36    3526.392    A        1.064992    1.472716
    37    3532.729    A        1.063395    0.919264
    38    3566.395    A        1.067038    0.779244
    39    3640.860    A        1.095305    0.609129
    40    3647.572    A        1.105361    0.426021
    41    3653.443    A        1.107750    0.844215
    42    3688.895    A        1.110011    0.872474

     -------------------------------
     THERMOCHEMISTRY AT T=  298.15 K
     -------------------------------

 USING IDEAL GAS, RIGID ROTOR, HARMONIC NORMAL MODE APPROXIMATIONS.
 P=  1.01325E+05 PASCAL.
 ALL FREQUENCIES ARE SCALED BY   1.00000
 THE MOMENTS OF INERTIA ARE (IN AMU*BOHR**2)
            342.69441          1073.08163          1205.59002
 THE ROTATIONAL SYMMETRY NUMBER IS  1.0
 THE ROTATIONAL CONSTANTS ARE (IN GHZ)
      5.26150     1.68029     1.49561
   1 IMAGINARY FREQUENCY VIBRATION(S) IS(ARE) EXCLUDED
     FROM THE FOLLOWING THERMOCHEMICAL ANALYSIS.
      8 -     42 VIBRATIONAL MODES ARE USED IN THERMOCHEMISTRY.
 THE HARMONIC ZERO POINT ENERGY IS (SCALED BY   1.000)
        0.137400 HARTREE/MOLECULE    30155.918106 CM**-1/MOLECULE 
       86.220183 KCAL/MOL              360.745246 KJ/MOL

               Q               LN Q
 ELEC.     1.00000E+00       0.000000
 TRANS.    7.00398E+07      18.064575
 ROT.      2.38348E+05      12.381486
 VIB.      4.46979E+00       1.497342
 TOT.      7.46180E+13      31.943403

              E         H         G         CV        CP        S
           KJ/MOL    KJ/MOL    KJ/MOL   J/MOL-K   J/MOL-K   J/MOL-K
 ELEC.      0.000     0.000     0.000     0.000     0.000     0.000
 TRANS.     3.718     6.197   -44.781    12.472    20.786   170.982
 ROT.       3.718     3.718   -30.693    12.472    12.472   115.416
 VIB.     366.454   366.454   357.033    46.544    46.544    31.596
 TOTAL    373.891   376.369   281.559    71.487    79.802   317.994
 VIB. THERMAL CORRECTION E(T)-E(0) = H(T)-H(0) =      5708.475 J/MOL

              E         H         G         CV        CP        S
         KCAL/MOL  KCAL/MOL  KCAL/MOL CAL/MOL-K CAL/MOL-K CAL/MOL-K
 ELEC.      0.000     0.000     0.000     0.000     0.000     0.000
 TRANS.     0.889     1.481   -10.703     2.981     4.968    40.866
 ROT.       0.889     0.889    -7.336     2.981     2.981    27.585
 VIB.      87.585    87.585    85.333    11.124    11.124     7.552
 TOTAL     89.362    89.954    67.294    17.086    19.073    76.003
 VIB. THERMAL CORRECTION E(T)-E(0) = H(T)-H(0) =      1364.358 CAL/MOL

     *******************************************************
     * THIS IS NOT A STATIONARY POINT ON THE MOLECULAR PES *
     *     THE VIBRATIONAL ANALYSIS IS NOT VALID !!!       *
     *******************************************************
 ......END OF NORMAL COORDINATE ANALYSIS......
 STEP CPU TIME =     0.00 TOTAL CPU TIME =         98.8 (      1.6 MIN)
 TOTAL WALL CLOCK TIME=         99.8 SECONDS, CPU UTILIZATION IS    99.08%
               997373  WORDS OF DYNAMIC MEMORY USED
 EXECUTION OF GAMESS TERMINATED NORMALLY Mon Nov 15 15:03:34 2021
 DDI: 263640 bytes (0.3 MB / 0 MWords) used by master data server.

 ----------------------------------------
 CPU timing information for all processes
 ========================================
 0: 96.640 + 2.214 = 98.854
 ----------------------------------------
 ddikick.x: exited gracefully.
----- accounting info -----
Files used on the master node chemcompute-node-0.novalocal were:
-rw-r--r--. 1 chemcomp chemcomp     1070 Nov 15 15:01 /scratch/306859/342893.F05
-rw-rw-r--. 1 chemcomp chemcomp  9360832 Nov 15 15:03 /scratch/306859/342893.F08
-rw-rw-r--. 1 chemcomp chemcomp 85196800 Nov 15 15:03 /scratch/306859/342893.F10
-rw-rw-r--. 1 chemcomp chemcomp   463344 Nov 15 15:03 /scratch/306859/342893.F18
Mon Nov 15 15:03:37 UTC 2021
0.123u 0.111s 1:43.37 0.2%	0+0k 8+216io 0pf+0w
Finishing Up...
Looking for IR data...
Looking for Raman data...
vibramans not found
Looking for thermodynamics data...
Looking for UV-Vis data...
306859
